# Converted from POSCAR to lammps format

7965 atoms
2 atom types

0.000000   38.973198   xlo xhi
0.000000   33.751779   ylo yhi
0.000000   41.919846   zlo zhi

  0.000000    0.000000    0.000000   xy xz yz

Atoms

   1  1        0.846483   3.004893   1.587364
   2  1        0.846483   3.004893  15.560646
   3  1        0.846483   3.004893  29.533928
   4  1        0.846483  14.255486   1.587364
   5  1        0.846483  14.255486  15.560646
   6  1        0.846483  14.255486  29.533928
   7  1        0.846483  25.506079   1.587364
   8  1        0.846483  25.506079  15.560646
   9  1        0.846483  25.506079  29.533928
  10  1       13.837549   3.004893   1.587364
  11  1       13.837549   3.004893  15.560646
  12  1       13.837549   3.004893  29.533928
  13  1       13.837549  14.255486   1.587364
  14  1       13.837549  14.255486  15.560646
  15  1       13.837549  14.255486  29.533928
  16  1       13.837549  25.506079   1.587364
  17  1       13.837549  25.506079  15.560646
  18  1       13.837549  25.506079  29.533928
  19  1       26.828615   3.004893   1.587364
  20  1       26.828615   3.004893  15.560646
  21  1       26.828615   3.004893  29.533928
  22  1       26.828615  14.255486   1.587364
  23  1       26.828615  14.255486  15.560646
  24  1       26.828615  14.255486  29.533928
  25  1       26.828615  25.506079   1.587364
  26  1       26.828615  25.506079  15.560646
  27  1       26.828615  25.506079  29.533928
  28  1        0.786090   1.927552   3.828844
  29  1        0.786090   1.927552  17.802127
  30  1        0.786090   1.927552  31.775408
  31  1        0.786090  13.178145   3.828844
  32  1        0.786090  13.178145  17.802127
  33  1        0.786090  13.178145  31.775408
  34  1        0.786090  24.428738   3.828844
  35  1        0.786090  24.428738  17.802127
  36  1        0.786090  24.428738  31.775408
  37  1       13.777156   1.927552   3.828844
  38  1       13.777156   1.927552  17.802127
  39  1       13.777156   1.927552  31.775408
  40  1       13.777156  13.178145   3.828844
  41  1       13.777156  13.178145  17.802127
  42  1       13.777156  13.178145  31.775408
  43  1       13.777156  24.428738   3.828844
  44  1       13.777156  24.428738  17.802127
  45  1       13.777156  24.428738  31.775408
  46  1       26.768222   1.927552   3.828844
  47  1       26.768222   1.927552  17.802127
  48  1       26.768222   1.927552  31.775408
  49  1       26.768222  13.178145   3.828844
  50  1       26.768222  13.178145  17.802127
  51  1       26.768222  13.178145  31.775408
  52  1       26.768222  24.428738   3.828844
  53  1       26.768222  24.428738  17.802127
  54  1       26.768222  24.428738  31.775408
  55  1        0.922414   3.104699   5.042537
  56  1        0.922414   3.104699  19.015818
  57  1        0.922414   3.104699  32.989100
  58  1        0.922414  14.355291   5.042537
  59  1        0.922414  14.355291  19.015818
  60  1        0.922414  14.355291  32.989100
  61  1        0.922414  25.605885   5.042537
  62  1        0.922414  25.605885  19.015818
  63  1        0.922414  25.605885  32.989100
  64  1       13.913480   3.104699   5.042537
  65  1       13.913480   3.104699  19.015818
  66  1       13.913480   3.104699  32.989100
  67  1       13.913480  14.355291   5.042537
  68  1       13.913480  14.355291  19.015818
  69  1       13.913480  14.355291  32.989100
  70  1       13.913480  25.605885   5.042537
  71  1       13.913480  25.605885  19.015818
  72  1       13.913480  25.605885  32.989100
  73  1       26.904546   3.104699   5.042537
  74  1       26.904546   3.104699  19.015818
  75  1       26.904546   3.104699  32.989100
  76  1       26.904546  14.355291   5.042537
  77  1       26.904546  14.355291  19.015818
  78  1       26.904546  14.355291  32.989100
  79  1       26.904546  25.605885   5.042537
  80  1       26.904546  25.605885  19.015818
  81  1       26.904546  25.605885  32.989100
  82  1        1.736714   1.124804   1.627076
  83  1        1.736714   1.124804  15.600358
  84  1        1.736714   1.124804  29.573640
  85  1        1.736714  12.375397   1.627076
  86  1        1.736714  12.375397  15.600358
  87  1        1.736714  12.375397  29.573640
  88  1        1.736714  23.625990   1.627076
  89  1        1.736714  23.625990  15.600358
  90  1        1.736714  23.625990  29.573640
  91  1       14.727780   1.124804   1.627076
  92  1       14.727780   1.124804  15.600358
  93  1       14.727780   1.124804  29.573640
  94  1       14.727780  12.375397   1.627076
  95  1       14.727780  12.375397  15.600358
  96  1       14.727780  12.375397  29.573640
  97  1       14.727780  23.625990   1.627076
  98  1       14.727780  23.625990  15.600358
  99  1       14.727780  23.625990  29.573640
 100  1       27.718846   1.124804   1.627076
 101  1       27.718846   1.124804  15.600358
 102  1       27.718846   1.124804  29.573640
 103  1       27.718846  12.375397   1.627076
 104  1       27.718846  12.375397  15.600358
 105  1       27.718846  12.375397  29.573640
 106  1       27.718846  23.625990   1.627076
 107  1       27.718846  23.625990  15.600358
 108  1       27.718846  23.625990  29.573640
 109  1        2.634830   3.034150   1.897742
 110  1        2.634830   3.034150  15.871024
 111  1        2.634830   3.034150  29.844306
 112  1        2.634830  14.284743   1.897742
 113  1        2.634830  14.284743  15.871024
 114  1        2.634830  14.284743  29.844306
 115  1        2.634830  25.535336   1.897742
 116  1        2.634830  25.535336  15.871024
 117  1        2.634830  25.535336  29.844306
 118  1       15.625896   3.034150   1.897742
 119  1       15.625896   3.034150  15.871024
 120  1       15.625896   3.034150  29.844306
 121  1       15.625896  14.284743   1.897742
 122  1       15.625896  14.284743  15.871024
 123  1       15.625896  14.284743  29.844306
 124  1       15.625896  25.535336   1.897742
 125  1       15.625896  25.535336  15.871024
 126  1       15.625896  25.535336  29.844306
 127  1       28.616962   3.034150   1.897742
 128  1       28.616962   3.034150  15.871024
 129  1       28.616962   3.034150  29.844306
 130  1       28.616962  14.284743   1.897742
 131  1       28.616962  14.284743  15.871024
 132  1       28.616962  14.284743  29.844306
 133  1       28.616962  25.535336   1.897742
 134  1       28.616962  25.535336  15.871024
 135  1       28.616962  25.535336  29.844306
 136  1        2.945873   2.053575   3.528841
 137  1        2.945873   2.053575  17.502123
 138  1        2.945873   2.053575  31.475405
 139  1        2.945873  13.304168   3.528841
 140  1        2.945873  13.304168  17.502123
 141  1        2.945873  13.304168  31.475405
 142  1        2.945873  24.554761   3.528841
 143  1        2.945873  24.554761  17.502123
 144  1        2.945873  24.554761  31.475405
 145  1       15.936939   2.053575   3.528841
 146  1       15.936939   2.053575  17.502123
 147  1       15.936939   2.053575  31.475405
 148  1       15.936939  13.304168   3.528841
 149  1       15.936939  13.304168  17.502123
 150  1       15.936939  13.304168  31.475405
 151  1       15.936939  24.554761   3.528841
 152  1       15.936939  24.554761  17.502123
 153  1       15.936939  24.554761  31.475405
 154  1       28.928005   2.053575   3.528841
 155  1       28.928005   2.053575  17.502123
 156  1       28.928005   2.053575  31.475405
 157  1       28.928005  13.304168   3.528841
 158  1       28.928005  13.304168  17.502123
 159  1       28.928005  13.304168  31.475405
 160  1       28.928005  24.554761   3.528841
 161  1       28.928005  24.554761  17.502123
 162  1       28.928005  24.554761  31.475405
 163  1        2.087748   1.397852   5.390957
 164  1        2.087748   1.397852  19.364239
 165  1        2.087748   1.397852  33.337521
 166  1        2.087748  12.648444   5.390957
 167  1        2.087748  12.648444  19.364239
 168  1        2.087748  12.648444  33.337521
 169  1        2.087748  23.899038   5.390957
 170  1        2.087748  23.899038  19.364239
 171  1        2.087748  23.899038  33.337521
 172  1       15.078814   1.397852   5.390957
 173  1       15.078814   1.397852  19.364239
 174  1       15.078814   1.397852  33.337521
 175  1       15.078814  12.648444   5.390957
 176  1       15.078814  12.648444  19.364239
 177  1       15.078814  12.648444  33.337521
 178  1       15.078814  23.899038   5.390957
 179  1       15.078814  23.899038  19.364239
 180  1       15.078814  23.899038  33.337521
 181  1       28.069880   1.397852   5.390957
 182  1       28.069880   1.397852  19.364239
 183  1       28.069880   1.397852  33.337521
 184  1       28.069880  12.648444   5.390957
 185  1       28.069880  12.648444  19.364239
 186  1       28.069880  12.648444  33.337521
 187  1       28.069880  23.899038   5.390957
 188  1       28.069880  23.899038  19.364239
 189  1       28.069880  23.899038  33.337521
 190  1        3.199043   3.061200   5.150705
 191  1        3.199043   3.061200  19.123987
 192  1        3.199043   3.061200  33.097269
 193  1        3.199043  14.311793   5.150705
 194  1        3.199043  14.311793  19.123987
 195  1        3.199043  14.311793  33.097269
 196  1        3.199043  25.562386   5.150705
 197  1        3.199043  25.562386  19.123987
 198  1        3.199043  25.562386  33.097269
 199  1       16.190109   3.061200   5.150705
 200  1       16.190109   3.061200  19.123987
 201  1       16.190109   3.061200  33.097269
 202  1       16.190109  14.311793   5.150705
 203  1       16.190109  14.311793  19.123987
 204  1       16.190109  14.311793  33.097269
 205  1       16.190109  25.562386   5.150705
 206  1       16.190109  25.562386  19.123987
 207  1       16.190109  25.562386  33.097269
 208  1       29.181175   3.061200   5.150705
 209  1       29.181175   3.061200  19.123987
 210  1       29.181175   3.061200  33.097269
 211  1       29.181175  14.311793   5.150705
 212  1       29.181175  14.311793  19.123987
 213  1       29.181175  14.311793  33.097269
 214  1       29.181175  25.562386   5.150705
 215  1       29.181175  25.562386  19.123987
 216  1       29.181175  25.562386  33.097269
 217  1        2.082495   5.116659   1.829316
 218  1        2.082495   5.116659  15.802598
 219  1        2.082495   5.116659  29.775880
 220  1        2.082495  16.367252   1.829316
 221  1        2.082495  16.367252  15.802598
 222  1        2.082495  16.367252  29.775880
 223  1        2.082495  27.617845   1.829316
 224  1        2.082495  27.617845  15.802598
 225  1        2.082495  27.617845  29.775880
 226  1       15.073561   5.116659   1.829316
 227  1       15.073561   5.116659  15.802598
 228  1       15.073561   5.116659  29.775880
 229  1       15.073561  16.367252   1.829316
 230  1       15.073561  16.367252  15.802598
 231  1       15.073561  16.367252  29.775880
 232  1       15.073561  27.617845   1.829316
 233  1       15.073561  27.617845  15.802598
 234  1       15.073561  27.617845  29.775880
 235  1       28.064626   5.116659   1.829316
 236  1       28.064626   5.116659  15.802598
 237  1       28.064626   5.116659  29.775880
 238  1       28.064626  16.367252   1.829316
 239  1       28.064626  16.367252  15.802598
 240  1       28.064626  16.367252  29.775880
 241  1       28.064626  27.617845   1.829316
 242  1       28.064626  27.617845  15.802598
 243  1       28.064626  27.617845  29.775880
 244  1        1.944747   3.950929   3.731231
 245  1        1.944747   3.950929  17.704512
 246  1        1.944747   3.950929  31.677795
 247  1        1.944747  15.201521   3.731231
 248  1        1.944747  15.201521  17.704512
 249  1        1.944747  15.201521  31.677795
 250  1        1.944747  26.452115   3.731231
 251  1        1.944747  26.452115  17.704512
 252  1        1.944747  26.452115  31.677795
 253  1       14.935812   3.950929   3.731231
 254  1       14.935812   3.950929  17.704512
 255  1       14.935812   3.950929  31.677795
 256  1       14.935812  15.201521   3.731231
 257  1       14.935812  15.201521  17.704512
 258  1       14.935812  15.201521  31.677795
 259  1       14.935812  26.452115   3.731231
 260  1       14.935812  26.452115  17.704512
 261  1       14.935812  26.452115  31.677795
 262  1       27.926878   3.950929   3.731231
 263  1       27.926878   3.950929  17.704512
 264  1       27.926878   3.950929  31.677795
 265  1       27.926878  15.201521   3.731231
 266  1       27.926878  15.201521  17.704512
 267  1       27.926878  15.201521  31.677795
 268  1       27.926878  26.452115   3.731231
 269  1       27.926878  26.452115  17.704512
 270  1       27.926878  26.452115  31.677795
 271  1        3.471382   5.623421   6.925928
 272  1        3.471382   5.623421  20.899210
 273  1        3.471382   5.623421  34.872492
 274  1        3.471382  16.874014   6.925928
 275  1        3.471382  16.874014  20.899210
 276  1        3.471382  16.874014  34.872492
 277  1        3.471382  28.124607   6.925928
 278  1        3.471382  28.124607  20.899210
 279  1        3.471382  28.124607  34.872492
 280  1       16.462448   5.623421   6.925928
 281  1       16.462448   5.623421  20.899210
 282  1       16.462448   5.623421  34.872492
 283  1       16.462448  16.874014   6.925928
 284  1       16.462448  16.874014  20.899210
 285  1       16.462448  16.874014  34.872492
 286  1       16.462448  28.124607   6.925928
 287  1       16.462448  28.124607  20.899210
 288  1       16.462448  28.124607  34.872492
 289  1       29.453514   5.623421   6.925928
 290  1       29.453514   5.623421  20.899210
 291  1       29.453514   5.623421  34.872492
 292  1       29.453514  16.874014   6.925928
 293  1       29.453514  16.874014  20.899210
 294  1       29.453514  16.874014  34.872492
 295  1       29.453514  28.124607   6.925928
 296  1       29.453514  28.124607  20.899210
 297  1       29.453514  28.124607  34.872492
 298  1        4.063264   1.258967   1.911303
 299  1        4.063264   1.258967  15.884585
 300  1        4.063264   1.258967  29.857867
 301  1        4.063264  12.509561   1.911303
 302  1        4.063264  12.509561  15.884585
 303  1        4.063264  12.509561  29.857867
 304  1        4.063264  23.760153   1.911303
 305  1        4.063264  23.760153  15.884585
 306  1        4.063264  23.760153  29.857867
 307  1       17.054330   1.258967   1.911303
 308  1       17.054330   1.258967  15.884585
 309  1       17.054330   1.258967  29.857867
 310  1       17.054330  12.509561   1.911303
 311  1       17.054330  12.509561  15.884585
 312  1       17.054330  12.509561  29.857867
 313  1       17.054330  23.760153   1.911303
 314  1       17.054330  23.760153  15.884585
 315  1       17.054330  23.760153  29.857867
 316  1       30.045396   1.258967   1.911303
 317  1       30.045396   1.258967  15.884585
 318  1       30.045396   1.258967  29.857867
 319  1       30.045396  12.509561   1.911303
 320  1       30.045396  12.509561  15.884585
 321  1       30.045396  12.509561  29.857867
 322  1       30.045396  23.760153   1.911303
 323  1       30.045396  23.760153  15.884585
 324  1       30.045396  23.760153  29.857867
 325  1        4.645743   3.554163   1.570943
 326  1        4.645743   3.554163  15.544225
 327  1        4.645743   3.554163  29.517507
 328  1        4.645743  14.804756   1.570943
 329  1        4.645743  14.804756  15.544225
 330  1        4.645743  14.804756  29.517507
 331  1        4.645743  26.055349   1.570943
 332  1        4.645743  26.055349  15.544225
 333  1        4.645743  26.055349  29.517507
 334  1       17.636809   3.554163   1.570943
 335  1       17.636809   3.554163  15.544225
 336  1       17.636809   3.554163  29.517507
 337  1       17.636809  14.804756   1.570943
 338  1       17.636809  14.804756  15.544225
 339  1       17.636809  14.804756  29.517507
 340  1       17.636809  26.055349   1.570943
 341  1       17.636809  26.055349  15.544225
 342  1       17.636809  26.055349  29.517507
 343  1       30.627875   3.554163   1.570943
 344  1       30.627875   3.554163  15.544225
 345  1       30.627875   3.554163  29.517507
 346  1       30.627875  14.804756   1.570943
 347  1       30.627875  14.804756  15.544225
 348  1       30.627875  14.804756  29.517507
 349  1       30.627875  26.055349   1.570943
 350  1       30.627875  26.055349  15.544225
 351  1       30.627875  26.055349  29.517507
 352  1        5.247307   1.939054   3.366673
 353  1        5.247307   1.939054  17.339955
 354  1        5.247307   1.939054  31.313238
 355  1        5.247307  13.189647   3.366673
 356  1        5.247307  13.189647  17.339955
 357  1        5.247307  13.189647  31.313238
 358  1        5.247307  24.440240   3.366673
 359  1        5.247307  24.440240  17.339955
 360  1        5.247307  24.440240  31.313238
 361  1       18.238372   1.939054   3.366673
 362  1       18.238372   1.939054  17.339955
 363  1       18.238372   1.939054  31.313238
 364  1       18.238372  13.189647   3.366673
 365  1       18.238372  13.189647  17.339955
 366  1       18.238372  13.189647  31.313238
 367  1       18.238372  24.440240   3.366673
 368  1       18.238372  24.440240  17.339955
 369  1       18.238372  24.440240  31.313238
 370  1       31.229438   1.939054   3.366673
 371  1       31.229438   1.939054  17.339955
 372  1       31.229438   1.939054  31.313238
 373  1       31.229438  13.189647   3.366673
 374  1       31.229438  13.189647  17.339955
 375  1       31.229438  13.189647  31.313238
 376  1       31.229438  24.440240   3.366673
 377  1       31.229438  24.440240  17.339955
 378  1       31.229438  24.440240  31.313238
 379  1        4.348213   1.162113   5.013087
 380  1        4.348213   1.162113  18.986369
 381  1        4.348213   1.162113  32.959651
 382  1        4.348213  12.412706   5.013087
 383  1        4.348213  12.412706  18.986369
 384  1        4.348213  12.412706  32.959651
 385  1        4.348213  23.663299   5.013087
 386  1        4.348213  23.663299  18.986369
 387  1        4.348213  23.663299  32.959651
 388  1       17.339279   1.162113   5.013087
 389  1       17.339279   1.162113  18.986369
 390  1       17.339279   1.162113  32.959651
 391  1       17.339279  12.412706   5.013087
 392  1       17.339279  12.412706  18.986369
 393  1       17.339279  12.412706  32.959651
 394  1       17.339279  23.663299   5.013087
 395  1       17.339279  23.663299  18.986369
 396  1       17.339279  23.663299  32.959651
 397  1       30.330345   1.162113   5.013087
 398  1       30.330345   1.162113  18.986369
 399  1       30.330345   1.162113  32.959651
 400  1       30.330345  12.412706   5.013087
 401  1       30.330345  12.412706  18.986369
 402  1       30.330345  12.412706  32.959651
 403  1       30.330345  23.663299   5.013087
 404  1       30.330345  23.663299  18.986369
 405  1       30.330345  23.663299  32.959651
 406  1        5.743818   2.965642   5.053391
 407  1        5.743818   2.965642  19.026673
 408  1        5.743818   2.965642  32.999955
 409  1        5.743818  14.216234   5.053391
 410  1        5.743818  14.216234  19.026673
 411  1        5.743818  14.216234  32.999955
 412  1        5.743818  25.466828   5.053391
 413  1        5.743818  25.466828  19.026673
 414  1        5.743818  25.466828  32.999955
 415  1       18.734884   2.965642   5.053391
 416  1       18.734884   2.965642  19.026673
 417  1       18.734884   2.965642  32.999955
 418  1       18.734884  14.216234   5.053391
 419  1       18.734884  14.216234  19.026673
 420  1       18.734884  14.216234  32.999955
 421  1       18.734884  25.466828   5.053391
 422  1       18.734884  25.466828  19.026673
 423  1       18.734884  25.466828  32.999955
 424  1       31.725950   2.965642   5.053391
 425  1       31.725950   2.965642  19.026673
 426  1       31.725950   2.965642  32.999955
 427  1       31.725950  14.216234   5.053391
 428  1       31.725950  14.216234  19.026673
 429  1       31.725950  14.216234  32.999955
 430  1       31.725950  25.466828   5.053391
 431  1       31.725950  25.466828  19.026673
 432  1       31.725950  25.466828  32.999955
 433  1        4.801612   4.103310  13.705670
 434  1        4.801612   4.103310  27.678952
 435  1        4.801612   4.103310  41.652234
 436  1        4.801612  15.353903  13.705670
 437  1        4.801612  15.353903  27.678952
 438  1        4.801612  15.353903  41.652234
 439  1        4.801612  26.604496  13.705670
 440  1        4.801612  26.604496  27.678952
 441  1        4.801612  26.604496  41.652234
 442  1       17.792678   4.103310  13.705670
 443  1       17.792678   4.103310  27.678952
 444  1       17.792678   4.103310  41.652234
 445  1       17.792678  15.353903  13.705670
 446  1       17.792678  15.353903  27.678952
 447  1       17.792678  15.353903  41.652234
 448  1       17.792678  26.604496  13.705670
 449  1       17.792678  26.604496  27.678952
 450  1       17.792678  26.604496  41.652234
 451  1       30.783744   4.103310  13.705670
 452  1       30.783744   4.103310  27.678952
 453  1       30.783744   4.103310  41.652234
 454  1       30.783744  15.353903  13.705670
 455  1       30.783744  15.353903  27.678952
 456  1       30.783744  15.353903  41.652234
 457  1       30.783744  26.604496  13.705670
 458  1       30.783744  26.604496  27.678952
 459  1       30.783744  26.604496  41.652234
 460  1        3.978079   3.943651   3.415731
 461  1        3.978079   3.943651  17.389014
 462  1        3.978079   3.943651  31.362295
 463  1        3.978079  15.194244   3.415731
 464  1        3.978079  15.194244  17.389014
 465  1        3.978079  15.194244  31.362295
 466  1        3.978079  26.444837   3.415731
 467  1        3.978079  26.444837  17.389014
 468  1        3.978079  26.444837  31.362295
 469  1       16.969146   3.943651   3.415731
 470  1       16.969146   3.943651  17.389014
 471  1       16.969146   3.943651  31.362295
 472  1       16.969146  15.194244   3.415731
 473  1       16.969146  15.194244  17.389014
 474  1       16.969146  15.194244  31.362295
 475  1       16.969146  26.444837   3.415731
 476  1       16.969146  26.444837  17.389014
 477  1       16.969146  26.444837  31.362295
 478  1       29.960211   3.943651   3.415731
 479  1       29.960211   3.943651  17.389014
 480  1       29.960211   3.943651  31.362295
 481  1       29.960211  15.194244   3.415731
 482  1       29.960211  15.194244  17.389014
 483  1       29.960211  15.194244  31.362295
 484  1       29.960211  26.444837   3.415731
 485  1       29.960211  26.444837  17.389014
 486  1       29.960211  26.444837  31.362295
 487  1        2.087838   4.973913   5.604381
 488  1        2.087838   4.973913  19.577663
 489  1        2.087838   4.973913  33.550945
 490  1        2.087838  16.224506   5.604381
 491  1        2.087838  16.224506  19.577663
 492  1        2.087838  16.224506  33.550945
 493  1        2.087838  27.475099   5.604381
 494  1        2.087838  27.475099  19.577663
 495  1        2.087838  27.475099  33.550945
 496  1       15.078904   4.973913   5.604381
 497  1       15.078904   4.973913  19.577663
 498  1       15.078904   4.973913  33.550945
 499  1       15.078904  16.224506   5.604381
 500  1       15.078904  16.224506  19.577663
 501  1       15.078904  16.224506  33.550945
 502  1       15.078904  27.475099   5.604381
 503  1       15.078904  27.475099  19.577663
 504  1       15.078904  27.475099  33.550945
 505  1       28.069970   4.973913   5.604381
 506  1       28.069970   4.973913  19.577663
 507  1       28.069970   4.973913  33.550945
 508  1       28.069970  16.224506   5.604381
 509  1       28.069970  16.224506  19.577663
 510  1       28.069970  16.224506  33.550945
 511  1       28.069970  27.475099   5.604381
 512  1       28.069970  27.475099  19.577663
 513  1       28.069970  27.475099  33.550945
 514  1        5.986388   3.810219   3.364223
 515  1        5.986388   3.810219  17.337505
 516  1        5.986388   3.810219  31.310786
 517  1        5.986388  15.060812   3.364223
 518  1        5.986388  15.060812  17.337505
 519  1        5.986388  15.060812  31.310786
 520  1        5.986388  26.311405   3.364223
 521  1        5.986388  26.311405  17.337505
 522  1        5.986388  26.311405  31.310786
 523  1       18.977455   3.810219   3.364223
 524  1       18.977455   3.810219  17.337505
 525  1       18.977455   3.810219  31.310786
 526  1       18.977455  15.060812   3.364223
 527  1       18.977455  15.060812  17.337505
 528  1       18.977455  15.060812  31.310786
 529  1       18.977455  26.311405   3.364223
 530  1       18.977455  26.311405  17.337505
 531  1       18.977455  26.311405  31.310786
 532  1       31.968521   3.810219   3.364223
 533  1       31.968521   3.810219  17.337505
 534  1       31.968521   3.810219  31.310786
 535  1       31.968521  15.060812   3.364223
 536  1       31.968521  15.060812  17.337505
 537  1       31.968521  15.060812  31.310786
 538  1       31.968521  26.311405   3.364223
 539  1       31.968521  26.311405  17.337505
 540  1       31.968521  26.311405  31.310786
 541  1        6.155222   4.729120   5.681680
 542  1        6.155222   4.729120  19.654962
 543  1        6.155222   4.729120  33.628244
 544  1        6.155222  15.979713   5.681680
 545  1        6.155222  15.979713  19.654962
 546  1        6.155222  15.979713  33.628244
 547  1        6.155222  27.230306   5.681680
 548  1        6.155222  27.230306  19.654962
 549  1        6.155222  27.230306  33.628244
 550  1       19.146288   4.729120   5.681680
 551  1       19.146288   4.729120  19.654962
 552  1       19.146288   4.729120  33.628244
 553  1       19.146288  15.979713   5.681680
 554  1       19.146288  15.979713  19.654962
 555  1       19.146288  15.979713  33.628244
 556  1       19.146288  27.230306   5.681680
 557  1       19.146288  27.230306  19.654962
 558  1       19.146288  27.230306  33.628244
 559  1       32.137354   4.729120   5.681680
 560  1       32.137354   4.729120  19.654962
 561  1       32.137354   4.729120  33.628244
 562  1       32.137354  15.979713   5.681680
 563  1       32.137354  15.979713  19.654962
 564  1       32.137354  15.979713  33.628244
 565  1       32.137354  27.230306   5.681680
 566  1       32.137354  27.230306  19.654962
 567  1       32.137354  27.230306  33.628244
 568  1        1.075469   1.743589  13.722482
 569  1        1.075469   1.743589  27.695764
 570  1        1.075469   1.743589  41.669046
 571  1        1.075469  12.994182  13.722482
 572  1        1.075469  12.994182  27.695764
 573  1        1.075469  12.994182  41.669046
 574  1        1.075469  24.244775  13.722482
 575  1        1.075469  24.244775  27.695764
 576  1        1.075469  24.244775  41.669046
 577  1       14.066535   1.743589  13.722482
 578  1       14.066535   1.743589  27.695764
 579  1       14.066535   1.743589  41.669046
 580  1       14.066535  12.994182  13.722482
 581  1       14.066535  12.994182  27.695764
 582  1       14.066535  12.994182  41.669046
 583  1       14.066535  24.244775  13.722482
 584  1       14.066535  24.244775  27.695764
 585  1       14.066535  24.244775  41.669046
 586  1       27.057601   1.743589  13.722482
 587  1       27.057601   1.743589  27.695764
 588  1       27.057601   1.743589  41.669046
 589  1       27.057601  12.994182  13.722482
 590  1       27.057601  12.994182  27.695764
 591  1       27.057601  12.994182  41.669046
 592  1       27.057601  24.244775  13.722482
 593  1       27.057601  24.244775  27.695764
 594  1       27.057601  24.244775  41.669046
 595  1       12.763897   1.307102   5.404870
 596  1       12.763897   1.307102  19.378152
 597  1       12.763897   1.307102  33.351434
 598  1       12.763897  12.557695   5.404870
 599  1       12.763897  12.557695  19.378152
 600  1       12.763897  12.557695  33.351434
 601  1       12.763897  23.808288   5.404870
 602  1       12.763897  23.808288  19.378152
 603  1       12.763897  23.808288  33.351434
 604  1       25.754963   1.307102   5.404870
 605  1       25.754963   1.307102  19.378152
 606  1       25.754963   1.307102  33.351434
 607  1       25.754963  12.557695   5.404870
 608  1       25.754963  12.557695  19.378152
 609  1       25.754963  12.557695  33.351434
 610  1       25.754963  23.808288   5.404870
 611  1       25.754963  23.808288  19.378152
 612  1       25.754963  23.808288  33.351434
 613  1       38.746029   1.307102   5.404870
 614  1       38.746029   1.307102  19.378152
 615  1       38.746029   1.307102  33.351434
 616  1       38.746029  12.557695   5.404870
 617  1       38.746029  12.557695  19.378152
 618  1       38.746029  12.557695  33.351434
 619  1       38.746029  23.808288   5.404870
 620  1       38.746029  23.808288  19.378152
 621  1       38.746029  23.808288  33.351434
 622  1        6.527329   1.043861   5.380331
 623  1        6.527329   1.043861  19.353613
 624  1        6.527329   1.043861  33.326895
 625  1        6.527329  12.294454   5.380331
 626  1        6.527329  12.294454  19.353613
 627  1        6.527329  12.294454  33.326895
 628  1        6.527329  23.545047   5.380331
 629  1        6.527329  23.545047  19.353613
 630  1        6.527329  23.545047  33.326895
 631  1       19.518395   1.043861   5.380331
 632  1       19.518395   1.043861  19.353613
 633  1       19.518395   1.043861  33.326895
 634  1       19.518395  12.294454   5.380331
 635  1       19.518395  12.294454  19.353613
 636  1       19.518395  12.294454  33.326895
 637  1       19.518395  23.545047   5.380331
 638  1       19.518395  23.545047  19.353613
 639  1       19.518395  23.545047  33.326895
 640  1       32.509462   1.043861   5.380331
 641  1       32.509462   1.043861  19.353613
 642  1       32.509462   1.043861  33.326895
 643  1       32.509462  12.294454   5.380331
 644  1       32.509462  12.294454  19.353613
 645  1       32.509462  12.294454  33.326895
 646  1       32.509462  23.545047   5.380331
 647  1       32.509462  23.545047  19.353613