# LAMMPS data file written by OVITO Basic 3.9.2

408 atoms
2 atom types

0.0 12.901542 xlo xhi
0.0 14.897418 ylo yhi
0.0 13.97065 zlo zhi

Atoms  # atomic

43 1 1.07821 3.05969 2.49655
45 1 5.31919 3.41205 2.43484
79 1 2.16817 1.51435 2.5531
369 1 5.12415 0.358808 0.950469
141 1 4.4084 1.20701 2.29262
187 1 3.53838 3.03029 2.55062
223 1 2.87569 0.75259 0.939325
271 1 1.88309 2.4275 0.776732
367 1 0.777997 0.697412 0.818105
333 1 4.14751 2.70305 0.593817
81 1 6.45536 1.40596 2.73314
273 1 6.08943 2.24986 0.96443
390 2 2.21997 3.66136 -0.0112525
19 1 1.31259 3.31464 6.32361
21 1 5.45267 3.54184 5.96844
55 1 2.10317 1.1263 6.05692
345 1 5.24999 0.601784 4.20895
117 1 4.16646 1.2939 6.02052
163 1 3.53875 3.16994 5.72866
199 1 3.26507 0.77861 4.32197
247 1 2.12384 2.74025 4.33522
343 1 1.12289 0.816829 4.24534
309 1 4.68868 2.38262 3.96931
385 2 0.683794 2.05886 5.62086
402 2 5.38926 2.10724 5.87485
57 1 6.54775 1.05734 6.28054
307 1 0.123817 2.8354 4.39517
37 1 1.25041 2.87659 9.54706
39 1 5.50905 3.47504 9.35745
73 1 2.35896 1.15114 9.48111
363 1 5.32615 0.752166 7.75736
135 1 4.2424 1.02698 9.36044
327 1 4.41761 2.42315 7.75869
217 1 3.06975 0.636039 7.69917
265 1 2.41435 2.59472 7.79449
361 1 1.09374 0.836358 7.70474
181 1 3.43647 3.02075 9.55581
267 1 6.50245 2.51873 7.68032
325 1 0.299585 2.62092 7.81214
75 1 6.41313 1.41274 9.51979
386 2 6.50777 -0.0809982 10.4854
13 1 0.911941 2.95145 12.909
15 1 5.43887 3.22799 12.9927
49 1 2.26496 1.46536 12.9718
337 1 1.36424 0.863911 11.2549
111 1 4.43641 1.23986 13.198
157 1 3.44037 3.30483 12.8098
193 1 3.47136 0.887566 11.1562
241 1 2.52844 2.5617 11.1781
339 1 5.58413 0.80327 11.5324
303 1 4.61553 2.53614 11.1807
51 1 6.60016 0.995609 13.0019
301 1 0.0481036 2.36925 11.1595
31 1 3.06376 7.20755 2.44242
379 1 3.18385 4.34932 1.04615
93 1 4.16998 5.21287 2.51655
127 1 1.72441 5.18779 2.15757
175 1 1.11514 7.01159 2.3247
177 1 5.29643 6.871 2.27954
235 1 0.879385 4.27452 0.648417
237 1 5.49965 4.36412 0.498812
319 1 1.7456 6.1851 0.669375
285 1 3.86674 6.15854 1.01233
321 1 6.36429 6.0087 0.824423
7 1 3.13422 6.86947 6.07079
295 1 2.15557 6.22015 4.09172
69 1 4.13288 4.94252 6.12869
103 1 2.01567 4.95666 6.00625
151 1 1.11487 6.68609 6.35942
153 1 5.05091 6.849 6.02608
211 1 1.12057 4.5255 4.21126
213 1 4.94513 4.46809 4.21589
355 1 3.07946 4.26934 4.16306
261 1 4.02764 6.07874 4.45292
297 1 6.01897 6.17797 3.8964
105 1 6.44002 5.13902 5.78941
259 1 0.0357832 6.03633 4.45873
25 1 3.16192 6.81711 9.63798
373 1 3.40773 4.35903 7.82593
87 1 4.36183 5.06184 9.70033
121 1 2.22494 4.48521 9.30495
231 1 5.31772 4.43617 7.76658
171 1 5.41257 6.82297 9.56603
229 1 0.924335 4.29463 7.78143
169 1 1.38858 6.79093 9.69796
313 1 2.28772 5.88328 7.90058
279 1 4.24076 6.5131 7.97205
85 1 0.147526 5.05929 9.44851
1 1 3.23188 6.8051 13.0793
349 1 3.29032 4.34059 11.2232
63 1 4.37711 5.09563 13.0112
97 1 2.2967 4.97314 13.1034
145 1 1.20909 6.83154 12.8998
147 1 5.40356 6.62999 13.3685
205 1 1.31522 4.36118 11.3683
207 1 5.43164 4.29569 11.3845
289 1 2.29521 6.04796 11.3601
255 1 4.30408 6.1165 11.3069
253 1 0.347466 6.13003 11.519
291 1 6.40033 6.31846 11.3919
44 1 1.02909 10.8083 2.75825
46 1 5.42607 10.4475 2.51198
80 1 1.92674 8.79725 2.44069
368 1 0.834016 8.12708 0.699942
142 1 4.2232 8.93101 2.44137
188 1 2.97258 10.5027 2.77193
224 1 3.14464 8.22477 0.838148
272 1 1.76075 9.88671 0.950033
370 1 5.45417 8.06676 0.869973
334 1 4.50666 10.0859 0.907767
140 1 0.0450417 9.08122 2.7061
82 1 6.34062 8.60687 2.84913
387 2 0.644799 7.9614 3.51897
392 2 3.29871 9.72872 0.382873
20 1 1.18639 10.688 6.51284
22 1 5.49439 10.5812 5.8906
56 1 2.07152 8.55325 6.3335
346 1 5.30763 8.09889 4.39665
118 1 4.33519 8.81002 6.03034
164 1 3.27877 10.5579 6.46304
200 1 3.1735 8.01787 4.12955
248 1 2.18513 9.8308 4.43983
344 1 1.27597 7.92219 4.67707
310 1 4.16371 9.88823 4.31322
250 1 6.31607 9.86462 4.4187
116 1 0.18144 8.61629 6.13076
308 1 0.0164633 10.1391 4.44864
38 1 1.11202 10.9636 9.3809
40 1 5.43967 10.8498 9.77199
74 1 2.09055 8.75104 9.69361
362 1 1.50765 7.66824 8.01535
136 1 4.56357 8.80787 9.46423
182 1 3.39878 10.783 9.76126
218 1 3.21964 8.07457 7.7869
266 1 2.05773 9.78061 7.99065
364 1 5.48407 8.18346 7.43599
328 1 4.14643 10.0842 8.04333
76 1 6.42837 8.44746 9.53907
405 2 2.20722 10.2351 10.1972
326 1 0.125794 9.57837 8.10239
134 1 0.0745732 8.65487 9.66926
16 1 5.34548 10.6715 13.1811
14 1 0.959876 10.4617 13.111
50 1 2.18694 8.67651 13.1455
340 1 5.49556 7.91544 11.4517
112 1 4.34599 8.62389 13.1333
158 1 3.07401 10.8685 13.1118
194 1 3.26751 8.10867 11.5169
242 1 2.21907 9.94312 11.6122
338 1 1.14107 8.27337 11.3076
304 1 4.41394 9.91702 11.3594
395 2 4.02389 7.90872 10.4081
302 1 0.219555 10.1086 11.2019
244 1 6.27462 9.87109 11.1752
32 1 3.36946 14.1205 2.54967
320 1 2.37163 13.7512 0.904812
94 1 4.29057 12.2382 2.65671
128 1 2.0132 12.5267 2.68492
176 1 0.794717 14.3489 2.37583
178 1 5.26774 14.0253 2.82632
236 1 1.15033 11.6571 0.781638
238 1 5.42141 11.8089 0.926557
380 1 3.27861 11.6246 1.03909
286 1 4.1872 13.5547 1.13052
408 2 0.953306 13.0925 1.52737
92 1 -0.103453 12.4619 2.70289
322 1 6.28647 13.4285 0.864287
284 1 0.0700492 13.5884 0.565554
8 1 3.04062 14.1911 6.07072
296 1 2.00569 13.7563 4.26775
70 1 4.48771 12.6302 6.10429
104 1 2.13696 12.2781 6.11587
212 1 1.12566 11.8301 4.44087
154 1 5.19369 14.5189 5.81201
152 1 0.823286 14.2343 6.10535
214 1 5.70937 11.793 4.17918
356 1 3.21646 12.0972 4.48409
262 1 4.00594 13.8122 4.26732
68 1 0.267139 12.4962 6.10628
298 1 6.4166 13.6337 4.41263
393 2 4.31701 11.1943 5.0269
26 1 3.22723 14.4026 9.72848
314 1 2.13413 13.9221 7.9555
88 1 4.29563 12.6418 9.62456
122 1 2.24657 12.6235 9.81829
170 1 0.933098 14.4103 9.65575
172 1 5.34434 14.3587 9.56797
230 1 1.3164 12.1769 7.94851
232 1 5.45979 11.7161 7.78501
374 1 3.23768 12.0599 7.98512
280 1 4.45263 13.7717 7.65692
316 1 6.3679 13.558 7.99836
2 1 3.29167 14.273 13.1011
290 1 1.90717 13.756 11.4763
64 1 4.31113 12.5663 13.2503
98 1 1.94225 12.6236 13.2454
146 1 1.29103 14.5685 13.2681
148 1 5.39428 14.2665 13.3377
206 1 1.26841 11.8296 11.2003
208 1 5.28268 11.9733 11.6112
350 1 3.45648 11.6838 11.3886
256 1 4.49112 14.0847 11.5122
391 2 3.51659 13.0147 12.0774
397 2 0.325106 14.6443 11.6396
62 1 0.102606 12.2106 12.8436
47 1 9.88242 3.2474 2.68515
371 1 9.61869 0.432846 1.00183
83 1 10.6391 1.33739 2.79516
143 1 8.75841 1.28115 2.64541
189 1 7.68358 3.00421 2.52564
191 1 11.7851 2.98075 2.41038
225 1 7.4098 0.620663 0.938934
227 1 11.6153 0.988174 0.85708
335 1 8.30462 2.26356 0.631024
275 1 10.3484 2.18186 0.930146
331 1 12.9382 2.63156 0.778267
139 1 12.9319 1.10656 2.60766
23 1 9.70635 3.239 6.00414
311 1 8.7202 3.00215 4.30393
59 1 10.487 1.5325 6.37448
119 1 8.55789 1.38143 5.96329
165 1 7.60652 3.10318 6.31527
167 1 11.8644 3.24869 6.09161
201 1 7.24476 0.562712 4.44159
203 1 11.8561 0.805866 4.41588
347 1 9.71684 0.642835 4.64032
251 1 10.7464 2.6296 4.4435
401 2 8.42941 1.49637 4.10611
115 1 12.5225 1.04608 6.26322
249 1 6.84363 2.79062 4.66354
41 1 9.72124 3.3858 9.63017
365 1 9.26257 0.341903 7.93666
77 1 10.733 1.70638 9.326
137 1 8.79986 1.25544 9.51639
183 1 7.59673 3.06957 9.50108
185 1 11.9349 3.1039 9.36095
219 1 7.36455 0.488093 8.08188
221 1 11.2421 0.307855 7.9522
329 1 8.62009 2.23602 7.98729
269 1 10.3366 2.72064 7.67892
407 2 11.9578 1.77096 8.03577
133 1 12.7785 1.21628 9.16651
17 1 9.57943 3.16504 13.0065
195 1 7.68187 0.490338 11.384
53 1 10.667 1.19791 12.4488
113 1 8.90816 1.16216 12.9862
159 1 7.4281 2.79017 12.8862
161 1 11.5516 2.76984 12.9981
341 1 9.99939 0.375625 10.8299
197 1 11.9973 0.822726 11.0306
305 1 8.86344 2.24331 11.2512
245 1 10.8821 2.91195 11.2325
243 1 6.49852 2.48555 11.0603
403 2 8.49188 3.81326 10.6213
109 1 12.7722 1.19142 13.062
389 2 10.5912 0.167742 13.7477
33 1 7.36267 6.75035 2.4837
35 1 12.2741 6.7411 2.76188
95 1 8.52755 4.93119 2.41217
383 1 11.4083 4.21351 0.739558
131 1 10.7559 5.00807 2.56835
179 1 9.45534 7.02307 2.72591
239 1 9.48554 4.1146 0.692751
287 1 8.53281 5.84547 0.65381
381 1 7.37087 3.97636 0.629003
323 1 10.6441 6.03732 0.786831
91 1 12.8397 5.0589 2.62304
394 2 10.7876 7.12971 2.0066
283 1 12.546 6.007 0.808751
129 1 6.66881 4.95493 2.4323
9 1 7.04699 6.95116 5.78624
11 1 11.8828 6.91796 6.01584
71 1 8.42886 5.04141 6.17821
359 1 11.6689 4.22628 4.06645
107 1 10.6483 5.04315 6.04778
155 1 9.73771 6.69377 5.77318
215 1 9.65727 4.76181 4.4809
263 1 8.46239 6.35461 4.3221
357 1 7.66441 4.64199 4.16415
299 1 10.9449 6.24445 4.20269
67 1 12.8024 4.86956 5.83868
398 2 8.76725 7.49657 6.61424
27 1 7.5528 6.87247 9.44584
377 1 11.9077 4.25572 7.6425
89 1 8.57539 5.09158 9.28965
29 1 11.842 6.66805 9.50082
125 1 10.7222 5.09821 9.51375
173 1 9.60737 6.82925 9.60186
233 1 9.51146 4.37479 7.90773
281 1 8.65011 6.36799 7.62658
375 1 7.46097 4.31024 7.9606
317 1 10.6316 6.17415 7.68585
315 1 6.54343 6.03297 7.77831
277 1 12.8796 6.16414 7.56979
123 1 6.61675 5.11877 9.53255
293 1 10.9385 6.31342 11.2852
5 1 11.9383 6.89731 12.9144
65 1 8.77431 4.77096 12.8981
3 1 7.53182 6.62286 13.0859
101 1 10.9407 4.83262 13.1185
149 1 9.57946 6.57527 12.7292
351 1 7.25137 4.3534 11.2253
257 1 8.36411 6.2136 11.1891
209 1 9.68525 4.61193 11.0347
353 1 11.894 4.64502 11.1988
61 1 12.8191 5.07602 13.0848
99 1 6.81303 4.74808 13.0132
400 2 12.897 3.72363 11.8692
48 1 9.74243 10.5012 2.52275
228 1 11.8104 7.99116 0.79839
84 1 10.971 8.64156 2.45399
144 1 8.55064 8.47785 2.43389
190 1 7.60391 10.0272 2.34372
192 1 11.8402 10.6529 2.32635
226 1 7.50193 7.68199 0.718326
372 1 9.40881 7.81023 0.57295
336 1 8.58688 9.65257 0.438684
276 1 10.6289 9.67292 0.762378
332 1 12.6771 9.82429 0.821252
274 1 6.57501 9.78711 0.926189
24 1 9.91871 10.4066 5.94294
312 1 8.67629 9.82463 4.0312
60 1 10.874 8.82802 6.21542
120 1 8.98225 8.71517 6.00156
168 1 11.8325 10.6324 6.10869
348 1 9.8835 8.1934 4.13046
166 1 7.76227 10.7137 5.95604
204 1 11.8242 8.07526 4.60697
202 1 7.79769 7.92488 4.25319
252 1 10.9161 10.1442 4.27943
404 2 7.677 9.10484 4.95891
58 1 6.60911 8.89083 5.9993
406 2 6.91522 10.8913 3.58122
42 1 9.77806 10.4091 9.88323
184 1 7.66602 10.3938 9.67459
78 1 10.8298 8.64033 9.70933
138 1 8.54118 8.56381 9.47965
366 1 9.86879 7.96077 8.20583
186 1 12.0614 10.7361 9.47762
220 1 7.68983 8.03102 7.4284
222 1 12.2274 7.83472 7.9855
330 1 8.73745 9.78086 7.63464
270 1 11.1119 9.97429 7.87444
268 1 6.49318 9.83921 7.61754
160 1 7.06 10.3209 12.7352
246 1 11.2948 9.5506 11.5605
54 1 10.6707 8.52531 13.0279
114 1 8.31468 8.49895 12.9131
18 1 9.80607 10.5436 12.9589
162 1 11.8778 10.639 13.0807
196 1 7.37381 8.13438 11.2423
198 1 12.0933 7.78581 11.2545
306 1 8.5962 9.69503 11.4384
342 1 9.62493 7.9947 11.3972
52 1 6.52072 8.518 13.141
110 1 12.6592 8.71131 13.0662
396 2 8.39776 10.8739 13.3428
180 1 9.42825 14.4475 2.71002
36 1 11.6539 14.4531 1.99015
96 1 8.87902 12.0117 2.46948
382 1 7.70389 11.6975 0.640775
132 1 10.9195 12.5346 2.574
324 1 10.5643 13.5533 0.783957
240 1 9.61039 11.4504 0.846124
288 1 8.32729 13.4213 1.06756
384 1 11.8221 11.7603 0.780248
34 1 7.22902 14.3617 2.51643
130 1 6.72425 12.168 2.41153
399 2 8.30189 13.328 2.73454
10 1 7.18682 14.2548 6.32523
12 1 11.5889 14.1596 5.95235
72 1 8.40454 12.3316 6.34375
360 1 11.8839 12.1933 4.3583
108 1 10.6457 12.3439 5.97504
156 1 9.66743 14.1606 6.16145
216 1 9.84994 11.9167 4.2339
264 1 8.62756 13.9176 4.36009
358 1 7.64198 12.0186 4.25926
300 1 10.8395 13.9362 4.19361
260 1 12.9102 14.1641 4.30516
106 1 6.55069 12.3226 6.3677
28 1 7.93236 14.2617 9.69072
30 1 11.552 14.4094 9.6223
90 1 8.46639 12.2604 9.62598
378 1 12.5295 11.8793 7.81093
126 1 10.6698 12.2671 9.44574
174 1 9.70317 13.9504 9.50507
234 1 9.31528 11.4708 8.05548
282 1 8.46664 13.3569 7.85307
376 1 7.35737 11.3615 8.18714
318 1 10.8958 13.2971 7.74379
86 1 12.8335 12.6088 9.62921
124 1 6.53064 12.7423 9.62236
388 2 10.9455 11.7796 7.41047
278 1 12.6883 13.9088 7.95791
4 1 7.61565 14.096 13.055
6 1 12.0068 14.2076 12.9087
66 1 8.75891 12.2827 13.1307
354 1 11.658 11.5219 11.2455
102 1 10.8352 12.3534 13.0001
150 1 9.7433 13.9771 13.0332
210 1 9.56895 11.672 11.3644
258 1 8.88577 13.4236 11.3297
352 1 7.54802 11.7102 11.4656
294 1 10.9644 13.5508 11.3625
292 1 6.4695 13.3848 11.3453
100 1 6.48193 12.1551 13.056
254 1 12.7345 13.3816 11.2477

Velocities

43 -4.97996 -3.0578 -1.12794
45 12.9885 13.9025 5.47473
79 0.131691 5.45204 4.3044
369 -13.2509 -3.17589 -7.33983
141 -15.979 6.45287 -1.35431
187 -10.9483 -4.28967 7.51384
223 2.97365 4.08013 -13.6876
271 -9.20617 10.11 -9.95686
367 -0.960582 3.75795 2.54882
333 -14.4091 -0.907156 2.65951
81 3.3148 -10.3739 -12.3753
273 5.55326 -17.4354 -8.50201
390 -10.4614 -6.89913 -9.81463
19 -5.80891 -4.79164 5.88271
21 -3.81919 5.99953 -1.58711
55 -11.3837 -11.7769 -4.46397
345 4.72731 -14.1806 8.63872
117 7.1716 -0.182142 -12.4666
163 -10.3241 -8.9704 3.11452
199 9.89115 10.6013 9.79182
247 7.44611 -0.135314 0.681535
343 -2.19975 17.9528 3.51909
309 -1.56164 1.12942 -5.23149
385 -17.6226 -18.1451 -3.7675
402 -0.780808 15.8909 23.0162
57 19.8604 -9.99742 -6.53076
307 -12.6985 2.5564 -8.23802
37 5.27921 -14.0715 3.62916
39 0.844081 11.8734 -8.74831
73 -4.90696 -2.5784 11.1745
363 17.3618 5.46978 17.3856
135 -7.17939 0.351253 9.54768
327 0.950903 0.371596 4.05682
217 -0.51819 -1.00638 12.2515
265 3.9064 -3.08857 17.7099
361 14.0382 -8.29657 -7.58352
181 -10.8108 2.16108 4.40348
267 8.11046 -9.40171 3.58796
325 -0.851224 4.99272 7.37006
75 3.72641 14.068 6.24565
386 29.6534 -27.9127 23.336
13 6.43918 -7.62149 -4.28668
15 0.551306 12.8148 7.85994
49 12.9098 -13.2299 8.17963
337 7.79228 11.7349 -7.03377
111 15.3925 3.63913 7.87106
157 13.7563 -14.2918 2.95136
193 5.12345 5.27088 -4.84186
241 17.1731 -12.7224 -0.558174
339 5.78583 -5.03695 -13.2431
303 6.36716 12.2851 12.2765
51 25.0603 -15.033 -1.12189
301 4.49511 0.997015 4.8524
31 -2.43423 13.3519 -14.4193
379 4.01286 -1.14579 -8.93801
93 -4.93818 9.59013 8.32962
127 8.56181 -12.9694 -3.85291
175 3.51958 2.32623 23.1973
177 -12.2629 -5.62641 5.29948
235 -7.07174 -2.20825 15.9967
237 -15.7226 -3.57684 -7.92161
319 21.6775 -4.03252 3.96911
285 9.45363 -6.62626 -16.1784
321 15.7754 13.0572 -10.4001
7 -8.12034 -4.29601 -7.02475
295 10.9158 19.011 4.33073
69 3.97888 -10.0065 -1.23459
103 3.70217 6.11311 12.4707
151 -3.47396 13.4127 -15.4635
153 -25.3376 5.50138 -17.1609
211 0.458127 3.17938 0.89633
213 -14.7455 -3.62184 -21.1329
355 0.458274 3.98899 -7.45135
261 -12.3377 -5.22262 0.218598
297 -3.01482 2.77846 6.07297
105 13.0019 -3.59105 -7.37147
259 -2.02924 -5.71555 -0.992113
25 17.9343 -8.08491 -16.2066
373 -3.31883 -7.61724 -5.54401
87 21.7496 1.77392 -8.59546
121 6.88157 -12.5067 3.63114
231 -2.87486 3.58991 16.8629
171 15.2323 -5.15449 -9.29905
229 15.3604 -0.0239531 -16.7662
169 2.90964 -9.47769 -11.4232
313 -3.65513 1.73012 -11.5152
279 -0.0915907 -7.29932 -3.19836
85 -7.65113 -10.4351 3.24021
1 -3.50431 8.87932 -8.12827
349 6.00535 5.11332 -22.6279
63 7.25461 -0.615353 1.8789
97 -2.2641 -0.976751 3.80712
145 3.61878 0.21221 -9.92527
147 -8.45886 20.0509 17.9921
205 -1.48436 0.998175 -4.86795
207 6.24184 4.12005 -10.4224
289 1.80023 6.39779 1.62662
255 4.31315 1.0485 2.44389
253 -20.0116 -5.2908 14.5112
291 -1.73025 4.0469 1.70936
44 3.86561 0.27138 -5.20497
46 -0.445673 6.34027 11.0215
80 -0.00570352 5.39243 2.60659
368 -4.54688 13.204 11.8041
142 -5.97724 -3.47187 -4.98527
188 -0.76337 -3.64945 -5.05636
224 10.6926 -3.20659 -3.52127
272 2.12676 -2.3874 14.5863
370 11.3282 -10.2451 3.32315
334 -1.87893 -11.3072 -12.0014
140 -2.55468 0.794372 -2.33918
82 2.3263 2.1503 15.7403
387 11.1308 14.0188 0.533428
392 -2.9774 -18.8622 6.79612
20 1.6624 -4.43563 -5.12724
22 -9.30797 -11.9826 2.65041
56 -3.72153 1.99859 8.98287
346 0.730334 -0.645888 -0.673478
118 -3.75738 11.015 -0.404302
164 1.11135 -6.00933 -4.13757
200 5.06554 3.95125 3.00862
248 5.03091 10.0294 19.825
344 -2.24816 13.3237 -3.99577
310 5.62321 3.01518 -16.2586
250 3.34428 -8.47291 -6.04031
116 -3.80966 -2.88584 5.10506
308 0.881965 -4.13225 15.1739
38 -6.79236 -1.90562 -4.92814
40 -13.0628 -0.934862 21.4216
74 3.69362 -4.61577 1.8437
362 -6.71771 1.97519 25.6534
136 9.67809 1.93065 -17.061
182 10.2272 -6.51239 6.66152
218 -6.74579 1.15398 -10.8237
266 -3.48817 15.8754 0.227013
364 -7.09834 -12.2496 -10.3998
328 4.94146 -8.03058 2.16195
76 9.48346 2.81213 7.02075
405 -8.25065 -5.71668 -2.06855
326 -1.01144 3.0416 4.08287
134 1.66883 -13.2369 -10.8811
16 -9.56123 5.04704 -3.94987
14 -1.16251 0.347686 -1.31084
50 -10.7615 3.32443 9.25791
340 -0.848423 6.00095 14.7674
112 -7.54097 12.0592 -7.42739
158 -13.1525 -13.121 -7.27145
194 6.38952 9.56324 6.21176
242 -1.43073 -6.01713 -2.02916
338 10.652 0.96658 5.66348
304 13.8695 -10.859 9.44347
395 -13.7505 15.8562 -33.6784
302 3.16169 -6.81197 1.93071
244 -5.28941 -0.898234 4.66356
32 -9.67827 -5.98359 7.19276
320 4.53326 10.2909 2.49026
94 2.80075 3.30309 0.0770583
128 5.12346 -3.5208 -14.6272
176 1.44692 12.7817 -5.65641
178 -12.7928 -1.13812 2.79558
236 5.06173 16.2547 -6.0143
238 -0.149323 -4.43802 -8.4258
380 -5.36249 -8.87645 -2.32072
286 14.6568 5.80926 9.76651
408 -3.60528 -19.6483 -11.3251
92 -12.9217 3.1609 9.67031
322 -5.15814 1.1609 4.61405
284 -1.99828 2.44717 -19.6664
8 -24.2242 7.531 -11.8629
296 10.8442 -12.3764 -8.71651
70 -6.85454 10.0736 -3.39631
104 -6.13444 0.785622 15.0482
212 4.52596 8.85284 7.31116
154 -10.8408 12.5207 13.3382
152 4.81692 -3.21857 7.91581
214 0.653745 -5.16567 -1.01583
356 -3.37722 -9.56716 -24.6863
262 19.9758 18.9149 6.93434
68 -6.97978 13.7526 -3.34878
298 10.0549 6.85512 -3.3732
393 25.7262 -1.35022 36.276
26 -8.10045 -5.53304 7.37903
314 -5.67258 -10.3993 4.95113
88 4.63284 -14.3543 21.2479
122 4.8221 16.2 -6.83653
170 -5.15354 -7.62306 7.20966
172 0.0871607 -3.04833 1.93535
230 3.27474 0.342117 8.63312
232 -4.77445 5.00379 -14.6096
374 -2.83394 -19.8871 6.85687
280 4.21483 -11.2861 -0.691809
316 8.13963 -3.01764 -11.5662
2 -9.61698 0.340174 2.15036
290 2.37693 7.96653 1.24959
64 -15.2321 12.0074 -3.88713
98 -5.56287 -7.69213 3.81178
146 -9.7289 -1.96256 0.0766576
148 13.6871 5.37846 -1.80329
206 -0.813206 0.175001 -12.964
208 -18.2467 -4.89345 -0.106055
350 -5.14051 18.8131 16.7414
256 -4.62887 -5.65812 12.0802
391 -13.7512 19.5462 23.0608
397 31.2188 37.5433 14.0528
62 -14.7612 11.7291 4.69113
47 -0.854074 -8.0167 -0.335632
371 -19.2537 -8.66428 -1.56032
83 -0.892965 3.83122 -4.78678
143 -18.4356 -2.82903 2.25303
189 10.9433 5.19027 4.71796
191 -7.65399 -8.06026 -3.56425
225 -4.6121 9.20919 -21.1095
227 -5.79398 1.88371 3.02646
335 -2.62932 2.30741 -7.8877
275 -12.6277 7.53556 -13.4645
331 2.17811 -10.7773 -8.1918
139 3.24596 -8.71252 -1.14685
23 -13.1138 -1.91996 3.3274
311 8.52227 -8.8758 7.71319
59 0.375345 5.73151 0.56508
119 -10.8151 2.06237 9.80305
165 12.9278 18.2812 1.5441
167 10.6095 -3.37972 18.4953
201 7.45775 1.37177 -7.4034
203 1.22022 1.35327 7.67324
347 -16.8228 -4.802 10.9412
251 -7.30617 6.8977 -10.5625
401 10.1453 -27.0593 -23.1802
115 -2.36726 -4.74254 -1.24621
249 -11.2458 2.75534 2.34899
41 7.19766 5.92477 5.63204
365 0.409271 16.4662 -1.17933
77 -7.30841 -4.92692 -19.0591
137 -6.64111 -8.88357 -13.7206
183 5.66987 -13.3268 1.9527
185 -3.7346 13.9834 24.5467
219 3.81102 -5.54252 11.3122
221 -13.3134 0.605603 -4.31931
329 9.2255 1.89356 0.350522
269 -4.09826 6.49635 -4.66456
407 4.13448 -3.20555 -4.99161
133 -0.408427 7.74974 -3.35106
17 -2.68519 -1.98527 12.0915
195 -1.51432 -14.771 17.3523
53 -11.1014 6.35483 -8.25505
113 10.6567 0.14387 -19.8526
159 12.9607 25.7328 -6.35644
161 -9.23259 -9.7518 -0.207317
341 4.38382 -13.6445 -15.6983
197 1.43807 -5.38764 8.44053
305 -14.5246 -0.598051 -19.6867
245 4.92565 4.9747 -10.9115
243 -7.36764 5.39716 7.49574
403 20.1933 21.3794 1.07658
109 1.21787 3.82292 12.8359
389 -6.64851 0.00726128 8.72017
33 4.70452 0.577335 -3.30986
35 13.0215 2.14311 4.46339
95 6.69821 -4.2797 20.6852
383 7.85652 -19.2861 7.49732
131 12.5108 4.59156 10.7656
179 6.42976 10.7087 2.46345
239 5.14253 -2.10655 9.87195
287 -9.68619 9.19369 10.8989
381 -3.36018 -8.04998 -9.37709
323 -10.2057 6.58988 5.05852
91 3.7252 7.61957 -9.44629
394 31.7531 21.828 -13.248
283 -2.9772 7.56797 -16.6697
129 16.4394 14.6784 -2.36987
9 -12.578 5.55351 -4.38886
11 0.99997 -7.18423 -5.35603
71 3.31416 7.67005 -1.14132
359 -5.59962 2.70632 9.60322
107 0.792873 3.73171 -5.84472
155 2.00225 -5.85846 1.81928
215 9.32647 -25.6202 0.567927
263 10.2181 -7.39037 1.90359
357 -2.11613 0.27514 -5.50227
299 3.95349 0.791978 -13.4457
67 -9.77258 5.2684 -8.35373
398 7.6039 -1.4727 -2.11026
27 11.912 -13.3839 -5.61849
377 -7.32743 6.55169 -0.819742
89 2.72348 9.83685 17.9369
29 -12.6665 -11.1904 -0.372567
125 -10.1526 -14.0868 2.56796
173 -1.28596 13.4737 9.48146
233 -4.89287 3.01739 -5.21928
281 5.44486 7.26228 2.38888
375 -1.08937 9.88399 -9.88069
317 2.64826 3.90318 7.37614
315 -7.98502 12.8187 -9.24197
277 -3.8834 2.96172 -8.67993
123 6.89185 -3.43543 -2.77477
293 10.7133 -0.724812 6.50271
5 0.738388 -2.62486 11.5504
65 10.3913 4.92555 16.309
3 -8.68861 2.35386 7.55227
101 0.829541 10.6351 -1.09694
149 3.77145 -1.59486 7.58893
351 7.30776 2.89869 -9.90842
257 -11.8175 -0.319811 -8.92339
209 6.31406 12.3639 -1.04301
353 -8.77516 -4.0215 0.494286
61 0.621943 3.54208 -16.5845
99 7.40694 -17.2477 2.69789
400 6.65159 -5.0041 21.7065
48 -10.7743 -18.2651 4.85488
228 -8.60347 0.397622 -16.7321
84 -8.78351 1.2675 7.78936
144 -1.86308 -5.20958 3.49573
190 -15.4389 13.8887 23.9231
192 -16.2545 1.00595 7.25867
226 0.848522 -1.74198 -2.58421
372 -0.19148 4.63571 -20.6693
336 5.60445 5.09675 0.661458
276 -4.41083 7.71195 -21.3284
332 9.18278 3.94188 -6.50706
274 -2.12307 -0.0240487 0.671995
24 -2.03951 -7.466 -8.72065
312 -4.97478 -11.7293 5.29607
60 2.11529 -12.1217 5.47039
120 31.1849 3.86833 1.55555
168 -13.1128 11.8109 4.2537
348 7.59942 4.4016 -9.41874
166 -7.02738 -8.62605 -3.27492
204 2.57803 -11.118 3.08923
202 5.16063 7.48505 3.40263
252 7.28625 13.3537 -1.08452
404 20.3623 4.6577 17.0162
58 4.61931 2.62016 -1.3127
406 11.0906 4.57492 -14.5038
42 6.46209 -1.79236 -0.67434
184 3.02183 6.28586 8.51835
78 -3.15628 17.4927 16.2046
138 -1.68897 -1.41586 17.6152
366 -11.9271 -2.48954 2.02351
186 -12.0448 0.844085 4.30262
220 5.73366 -10.5933 -2.98525
222 0.472996 -19.122 -9.95666
330 0.535922 -0.0718389 1.81605
270 -8.34893 9.28487 -1.58191
268 -4.79067 -3.52281 -10.7765
160 4.78489 -3.22866 15.3271
246 -5.3202 -4.81047 -4.90132
54 10.6735 17.5361 -13.0674
114 -4.89803 3.86519 -13.7326
18 5.2473 -23.3542 -6.16905
162 9.56177 3.99749 -2.54186
196 -11.6885 12.4394 -2.94654
198 0.171242 4.92655 -17.4125
306 6.62513 5.30129 -1.29211
342 7.64 3.74664 0.908905
52 -2.51053 2.37919 -15.6336
110 3.802 -3.94454 -4.21905
396 -9.55233 2.71219 15.9493
180 1.50022 1.81808 -12.5148
36 2.14262 -1.51811 15.3998
96 7.68736 -5.23283 10.3279
382 0.526298 8.77302 -7.06918
132 4.32216 8.09499 -13.9152
324 -7.1232 -1.2405 5.17571
240 9.87784 -12.8491 9.83944
288 14.2911 -22.0361 14.1901
384 -1.2738 -2.41909 4.11589
34 -2.27295 9.56946 -24.6433
130 8.01995 -20.8653 10.6682
399 -36.8803 17.2117 17.6648
10 -15.0133 -1.54743 -6.07046
12 -9.29168 -3.5862 6.64777
72 1.4168 -9.49412 10.5699
360 -20.5397 -2.75375 -1.91765
108 11.8627 -3.14353 6.85511
156 -11.6271 -9.04352 -11.3929
216 5.39699 -2.2942 -4.07904
264 -1.82875 -13.0175 -0.327166
358 -0.80121 4.33704 -12.3492
300 -2.62162 6.77835 -3.47279
260 7.42667 -7.54503 -0.520335
106 -17.2405 7.20778 -0.440413
28 -2.95731 -4.21987 -32.5093
30 -4.11499 4.08257 6.62672
90 3.27845 18.3224 -10.3095
378 -7.96304 -4.25627 3.98738
126 1.76437 2.27552 -5.41103
174 2.17848 -12.6768 -5.15671
234 4.68813 -4.38064 4.58705
282 -6.51053 -18.8323 9.30306
376 1.05092 -6.40847 -3.39067
318 -8.21242 -13.0679 11.4597
86 4.95094 4.63149 8.56331
124 -2.86805 -5.98256 -7.09214
388 11.7715 -27.8404 -19.5328
278 -13.3964 0.0472398 -0.369974
4 9.54821 -2.7666 10.39
6 5.1162 8.67186 8.75745
66 10.3852 1.87261 -1.88647
354 6.99516 -5.91567 -2.44481
102 12.3931 -17.2282 13.9331
150 -9.27013 10.8144 -1.96953
210 5.96778 7.9261 2.22437
258 -1.44039 -3.33741 4.84824
352 9.11108 16.1747 9.50597
294 -3.20769 -15.27 10.4104
292 -8.48574 -7.89789 -12.2738
100 0.329454 -1.53556 -3.65021
254 -2.43077 5.61659 13.7328
