# Converted from POSCAR to lammps format

6750 atoms
2 atom types

0.000000   35.294493   xlo xhi
0.000000   35.294493   ylo yhi
0.000000   35.294493   zlo zhi

  0.000000    0.000000    0.000000   xy xz yz

Atoms

   1  1        6.236111   9.915975   0.666415
   2  1        6.236111   9.915975  12.431246
   3  1        6.236111   9.915975  24.196077
   4  1        6.236111  21.680806   0.666415
   5  1        6.236111  21.680806  12.431246
   6  1        6.236111  21.680806  24.196077
   7  1        6.236111  33.445637   0.666415
   8  1        6.236111  33.445637  12.431246
   9  1        6.236111  33.445637  24.196077
  10  1       18.000942   9.915975   0.666415
  11  1       18.000942   9.915975  12.431246
  12  1       18.000942   9.915975  24.196077
  13  1       18.000942  21.680806   0.666415
  14  1       18.000942  21.680806  12.431246
  15  1       18.000942  21.680806  24.196077
  16  1       18.000942  33.445637   0.666415
  17  1       18.000942  33.445637  12.431246
  18  1       18.000942  33.445637  24.196077
  19  1       29.765773   9.915975   0.666415
  20  1       29.765773   9.915975  12.431246
  21  1       29.765773   9.915975  24.196077
  22  1       29.765773  21.680806   0.666415
  23  1       29.765773  21.680806  12.431246
  24  1       29.765773  21.680806  24.196077
  25  1       29.765773  33.445637   0.666415
  26  1       29.765773  33.445637  12.431246
  27  1       29.765773  33.445637  24.196077
  28  1        1.218551   6.916529   3.177962
  29  1        1.218551   6.916529  14.942793
  30  1        1.218551   6.916529  26.707623
  31  1        1.218551  18.681360   3.177962
  32  1        1.218551  18.681360  14.942793
  33  1        1.218551  18.681360  26.707623
  34  1        1.218551  30.446191   3.177962
  35  1        1.218551  30.446191  14.942793
  36  1        1.218551  30.446191  26.707623
  37  1       12.983382   6.916529   3.177962
  38  1       12.983382   6.916529  14.942793
  39  1       12.983382   6.916529  26.707623
  40  1       12.983382  18.681360   3.177962
  41  1       12.983382  18.681360  14.942793
  42  1       12.983382  18.681360  26.707623
  43  1       12.983382  30.446191   3.177962
  44  1       12.983382  30.446191  14.942793
  45  1       12.983382  30.446191  26.707623
  46  1       24.748213   6.916529   3.177962
  47  1       24.748213   6.916529  14.942793
  48  1       24.748213   6.916529  26.707623
  49  1       24.748213  18.681360   3.177962
  50  1       24.748213  18.681360  14.942793
  51  1       24.748213  18.681360  26.707623
  52  1       24.748213  30.446191   3.177962
  53  1       24.748213  30.446191  14.942793
  54  1       24.748213  30.446191  26.707623
  55  1        7.716065   8.977756  10.494880
  56  1        7.716065   8.977756  22.259712
  57  1        7.716065   8.977756  34.024542
  58  1        7.716065  20.742587  10.494880
  59  1        7.716065  20.742587  22.259712
  60  1        7.716065  20.742587  34.024542
  61  1        7.716065  32.507418  10.494880
  62  1        7.716065  32.507418  22.259712
  63  1        7.716065  32.507418  34.024542
  64  1       19.480896   8.977756  10.494880
  65  1       19.480896   8.977756  22.259712
  66  1       19.480896   8.977756  34.024542
  67  1       19.480896  20.742587  10.494880
  68  1       19.480896  20.742587  22.259712
  69  1       19.480896  20.742587  34.024542
  70  1       19.480896  32.507418  10.494880
  71  1       19.480896  32.507418  22.259712
  72  1       19.480896  32.507418  34.024542
  73  1       31.245728   8.977756  10.494880
  74  1       31.245728   8.977756  22.259712
  75  1       31.245728   8.977756  34.024542
  76  1       31.245728  20.742587  10.494880
  77  1       31.245728  20.742587  22.259712
  78  1       31.245728  20.742587  34.024542
  79  1       31.245728  32.507418  10.494880
  80  1       31.245728  32.507418  22.259712
  81  1       31.245728  32.507418  34.024542
  82  1        6.824415  10.045502   8.754349
  83  1        6.824415  10.045502  20.519180
  84  1        6.824415  10.045502  32.284011
  85  1        6.824415  21.810333   8.754349
  86  1        6.824415  21.810333  20.519180
  87  1        6.824415  21.810333  32.284011
  88  1        6.824415  33.575164   8.754349
  89  1        6.824415  33.575164  20.519180
  90  1        6.824415  33.575164  32.284011
  91  1       18.589246  10.045502   8.754349
  92  1       18.589246  10.045502  20.519180
  93  1       18.589246  10.045502  32.284011
  94  1       18.589246  21.810333   8.754349
  95  1       18.589246  21.810333  20.519180
  96  1       18.589246  21.810333  32.284011
  97  1       18.589246  33.575164   8.754349
  98  1       18.589246  33.575164  20.519180
  99  1       18.589246  33.575164  32.284011
 100  1       30.354078  10.045502   8.754349
 101  1       30.354078  10.045502  20.519180
 102  1       30.354078  10.045502  32.284011
 103  1       30.354078  21.810333   8.754349
 104  1       30.354078  21.810333  20.519180
 105  1       30.354078  21.810333  32.284011
 106  1       30.354078  33.575164   8.754349
 107  1       30.354078  33.575164  20.519180
 108  1       30.354078  33.575164  32.284011
 109  1        9.291584   0.159357   0.631902
 110  1        9.291584   0.159357  12.396733
 111  1        9.291584   0.159357  24.161564
 112  1        9.291584  11.924188   0.631902
 113  1        9.291584  11.924188  12.396733
 114  1        9.291584  11.924188  24.161564
 115  1        9.291584  23.689019   0.631902
 116  1        9.291584  23.689019  12.396733
 117  1        9.291584  23.689019  24.161564
 118  1       21.056415   0.159357   0.631902
 119  1       21.056415   0.159357  12.396733
 120  1       21.056415   0.159357  24.161564
 121  1       21.056415  11.924188   0.631902
 122  1       21.056415  11.924188  12.396733
 123  1       21.056415  11.924188  24.161564
 124  1       21.056415  23.689019   0.631902
 125  1       21.056415  23.689019  12.396733
 126  1       21.056415  23.689019  24.161564
 127  1       32.821246   0.159357   0.631902
 128  1       32.821246   0.159357  12.396733
 129  1       32.821246   0.159357  24.161564
 130  1       32.821246  11.924188   0.631902
 131  1       32.821246  11.924188  12.396733
 132  1       32.821246  11.924188  24.161564
 133  1       32.821246  23.689019   0.631902
 134  1       32.821246  23.689019  12.396733
 135  1       32.821246  23.689019  24.161564
 136  1        4.108203   6.597132   5.207601
 137  1        4.108203   6.597132  16.972432
 138  1        4.108203   6.597132  28.737263
 139  1        4.108203  18.361962   5.207601
 140  1        4.108203  18.361962  16.972432
 141  1        4.108203  18.361962  28.737263
 142  1        4.108203  30.126793   5.207601
 143  1        4.108203  30.126793  16.972432
 144  1        4.108203  30.126793  28.737263
 145  1       15.873034   6.597132   5.207601
 146  1       15.873034   6.597132  16.972432
 147  1       15.873034   6.597132  28.737263
 148  1       15.873034  18.361962   5.207601
 149  1       15.873034  18.361962  16.972432
 150  1       15.873034  18.361962  28.737263
 151  1       15.873034  30.126793   5.207601
 152  1       15.873034  30.126793  16.972432
 153  1       15.873034  30.126793  28.737263
 154  1       27.637865   6.597132   5.207601
 155  1       27.637865   6.597132  16.972432
 156  1       27.637865   6.597132  28.737263
 157  1       27.637865  18.361962   5.207601
 158  1       27.637865  18.361962  16.972432
 159  1       27.637865  18.361962  28.737263
 160  1       27.637865  30.126793   5.207601
 161  1       27.637865  30.126793  16.972432
 162  1       27.637865  30.126793  28.737263
 163  1       11.436080   6.062242   9.598465
 164  1       11.436080   6.062242  21.363296
 165  1       11.436080   6.062242  33.128127
 166  1       11.436080  17.827073   9.598465
 167  1       11.436080  17.827073  21.363296
 168  1       11.436080  17.827073  33.128127
 169  1       11.436080  29.591904   9.598465
 170  1       11.436080  29.591904  21.363296
 171  1       11.436080  29.591904  33.128127
 172  1       23.200911   6.062242   9.598465
 173  1       23.200911   6.062242  21.363296
 174  1       23.200911   6.062242  33.128127
 175  1       23.200911  17.827073   9.598465
 176  1       23.200911  17.827073  21.363296
 177  1       23.200911  17.827073  33.128127
 178  1       23.200911  29.591904   9.598465
 179  1       23.200911  29.591904  21.363296
 180  1       23.200911  29.591904  33.128127
 181  1       34.965742   6.062242   9.598465
 182  1       34.965742   6.062242  21.363296
 183  1       34.965742   6.062242  33.128127
 184  1       34.965742  17.827073   9.598465
 185  1       34.965742  17.827073  21.363296
 186  1       34.965742  17.827073  33.128127
 187  1       34.965742  29.591904   9.598465
 188  1       34.965742  29.591904  21.363296
 189  1       34.965742  29.591904  33.128127
 190  1        7.684238  10.827613  10.532429
 191  1        7.684238  10.827613  22.297260
 192  1        7.684238  10.827613  34.062091
 193  1        7.684238  22.592444  10.532429
 194  1        7.684238  22.592444  22.297260
 195  1        7.684238  22.592444  34.062091
 196  1        7.684238  34.357275  10.532429
 197  1        7.684238  34.357275  22.297260
 198  1        7.684238  34.357275  34.062091
 199  1       19.449070  10.827613  10.532429
 200  1       19.449070  10.827613  22.297260
 201  1       19.449070  10.827613  34.062091
 202  1       19.449070  22.592444  10.532429
 203  1       19.449070  22.592444  22.297260
 204  1       19.449070  22.592444  34.062091
 205  1       19.449070  34.357275  10.532429
 206  1       19.449070  34.357275  22.297260
 207  1       19.449070  34.357275  34.062091
 208  1       31.213900  10.827613  10.532429
 209  1       31.213900  10.827613  22.297260
 210  1       31.213900  10.827613  34.062091
 211  1       31.213900  22.592444  10.532429
 212  1       31.213900  22.592444  22.297260
 213  1       31.213900  22.592444  34.062091
 214  1       31.213900  34.357275  10.532429
 215  1       31.213900  34.357275  22.297260
 216  1       31.213900  34.357275  34.062091
 217  1        1.078727   3.028241   4.456138
 218  1        1.078727   3.028241  16.220969
 219  1        1.078727   3.028241  27.985800
 220  1        1.078727  14.793072   4.456138
 221  1        1.078727  14.793072  16.220969
 222  1        1.078727  14.793072  27.985800
 223  1        1.078727  26.557902   4.456138
 224  1        1.078727  26.557902  16.220969
 225  1        1.078727  26.557902  27.985800
 226  1       12.843558   3.028241   4.456138
 227  1       12.843558   3.028241  16.220969
 228  1       12.843558   3.028241  27.985800
 229  1       12.843558  14.793072   4.456138
 230  1       12.843558  14.793072  16.220969
 231  1       12.843558  14.793072  27.985800
 232  1       12.843558  26.557902   4.456138
 233  1       12.843558  26.557902  16.220969
 234  1       12.843558  26.557902  27.985800
 235  1       24.608389   3.028241   4.456138
 236  1       24.608389   3.028241  16.220969
 237  1       24.608389   3.028241  27.985800
 238  1       24.608389  14.793072   4.456138
 239  1       24.608389  14.793072  16.220969
 240  1       24.608389  14.793072  27.985800
 241  1       24.608389  26.557902   4.456138
 242  1       24.608389  26.557902  16.220969
 243  1       24.608389  26.557902  27.985800
 244  1        6.039229   3.892217  10.064122
 245  1        6.039229   3.892217  21.828953
 246  1        6.039229   3.892217  33.593784
 247  1        6.039229  15.657048  10.064122
 248  1        6.039229  15.657048  21.828953
 249  1        6.039229  15.657048  33.593784
 250  1        6.039229  27.421879  10.064122
 251  1        6.039229  27.421879  21.828953
 252  1        6.039229  27.421879  33.593784
 253  1       17.804060   3.892217  10.064122
 254  1       17.804060   3.892217  21.828953
 255  1       17.804060   3.892217  33.593784
 256  1       17.804060  15.657048  10.064122
 257  1       17.804060  15.657048  21.828953
 258  1       17.804060  15.657048  33.593784
 259  1       17.804060  27.421879  10.064122
 260  1       17.804060  27.421879  21.828953
 261  1       17.804060  27.421879  33.593784
 262  1       29.568891   3.892217  10.064122
 263  1       29.568891   3.892217  21.828953
 264  1       29.568891   3.892217  33.593784
 265  1       29.568891  15.657048  10.064122
 266  1       29.568891  15.657048  21.828953
 267  1       29.568891  15.657048  33.593784
 268  1       29.568891  27.421879  10.064122
 269  1       29.568891  27.421879  21.828953
 270  1       29.568891  27.421879  33.593784
 271  1        8.155375   3.891898  10.788854
 272  1        8.155375   3.891898  22.553685
 273  1        8.155375   3.891898  34.318516
 274  1        8.155375  15.656729  10.788854
 275  1        8.155375  15.656729  22.553685
 276  1        8.155375  15.656729  34.318516
 277  1        8.155375  27.421560  10.788854
 278  1        8.155375  27.421560  22.553685
 279  1        8.155375  27.421560  34.318516
 280  1       19.920205   3.891898  10.788854
 281  1       19.920205   3.891898  22.553685
 282  1       19.920205   3.891898  34.318516
 283  1       19.920205  15.656729  10.788854
 284  1       19.920205  15.656729  22.553685
 285  1       19.920205  15.656729  34.318516
 286  1       19.920205  27.421560  10.788854
 287  1       19.920205  27.421560  22.553685
 288  1       19.920205  27.421560  34.318516
 289  1       31.685036   3.891898  10.788854
 290  1       31.685036   3.891898  22.553685
 291  1       31.685036   3.891898  34.318516
 292  1       31.685036  15.656729  10.788854
 293  1       31.685036  15.656729  22.553685
 294  1       31.685036  15.656729  34.318516
 295  1       31.685036  27.421560  10.788854
 296  1       31.685036  27.421560  22.553685
 297  1       31.685036  27.421560  34.318516
 298  1        8.743772   8.657971   7.496193
 299  1        8.743772   8.657971  19.261024
 300  1        8.743772   8.657971  31.025855
 301  1        8.743772  20.422802   7.496193
 302  1        8.743772  20.422802  19.261024
 303  1        8.743772  20.422802  31.025855
 304  1        8.743772  32.187633   7.496193
 305  1        8.743772  32.187633  19.261024
 306  1        8.743772  32.187633  31.025855
 307  1       20.508602   8.657971   7.496193
 308  1       20.508602   8.657971  19.261024
 309  1       20.508602   8.657971  31.025855
 310  1       20.508602  20.422802   7.496193
 311  1       20.508602  20.422802  19.261024
 312  1       20.508602  20.422802  31.025855
 313  1       20.508602  32.187633   7.496193
 314  1       20.508602  32.187633  19.261024
 315  1       20.508602  32.187633  31.025855
 316  1       32.273433   8.657971   7.496193
 317  1       32.273433   8.657971  19.261024
 318  1       32.273433   8.657971  31.025855
 319  1       32.273433  20.422802   7.496193
 320  1       32.273433  20.422802  19.261024
 321  1       32.273433  20.422802  31.025855
 322  1       32.273433  32.187633   7.496193
 323  1       32.273433  32.187633  19.261024
 324  1       32.273433  32.187633  31.025855
 325  1        1.855202  10.691049   8.998908
 326  1        1.855202  10.691049  20.763739
 327  1        1.855202  10.691049  32.528570
 328  1        1.855202  22.455880   8.998908
 329  1        1.855202  22.455880  20.763739
 330  1        1.855202  22.455880  32.528570
 331  1        1.855202  34.220711   8.998908
 332  1        1.855202  34.220711  20.763739
 333  1        1.855202  34.220711  32.528570
 334  1       13.620034  10.691049   8.998908
 335  1       13.620034  10.691049  20.763739
 336  1       13.620034  10.691049  32.528570
 337  1       13.620034  22.455880   8.998908
 338  1       13.620034  22.455880  20.763739
 339  1       13.620034  22.455880  32.528570
 340  1       13.620034  34.220711   8.998908
 341  1       13.620034  34.220711  20.763739
 342  1       13.620034  34.220711  32.528570
 343  1       25.384865  10.691049   8.998908
 344  1       25.384865  10.691049  20.763739
 345  1       25.384865  10.691049  32.528570
 346  1       25.384865  22.455880   8.998908
 347  1       25.384865  22.455880  20.763739
 348  1       25.384865  22.455880  32.528570
 349  1       25.384865  34.220711   8.998908
 350  1       25.384865  34.220711  20.763739
 351  1       25.384865  34.220711  32.528570
 352  1        1.031607   1.584314   6.961091
 353  1        1.031607   1.584314  18.725921
 354  1        1.031607   1.584314  30.490752
 355  1        1.031607  13.349145   6.961091
 356  1        1.031607  13.349145  18.725921
 357  1        1.031607  13.349145  30.490752
 358  1        1.031607  25.113975   6.961091
 359  1        1.031607  25.113975  18.725921
 360  1        1.031607  25.113975  30.490752
 361  1       12.796438   1.584314   6.961091
 362  1       12.796438   1.584314  18.725921
 363  1       12.796438   1.584314  30.490752
 364  1       12.796438  13.349145   6.961091
 365  1       12.796438  13.349145  18.725921
 366  1       12.796438  13.349145  30.490752
 367  1       12.796438  25.113975   6.961091
 368  1       12.796438  25.113975  18.725921
 369  1       12.796438  25.113975  30.490752
 370  1       24.561269   1.584314   6.961091
 371  1       24.561269   1.584314  18.725921
 372  1       24.561269   1.584314  30.490752
 373  1       24.561269  13.349145   6.961091
 374  1       24.561269  13.349145  18.725921
 375  1       24.561269  13.349145  30.490752
 376  1       24.561269  25.113975   6.961091
 377  1       24.561269  25.113975  18.725921
 378  1       24.561269  25.113975  30.490752
 379  1       11.659858   6.092147   7.481425
 380  1       11.659858   6.092147  19.246256
 381  1       11.659858   6.092147  31.011087
 382  1       11.659858  17.856978   7.481425
 383  1       11.659858  17.856978  19.246256
 384  1       11.659858  17.856978  31.011087
 385  1       11.659858  29.621809   7.481425
 386  1       11.659858  29.621809  19.246256
 387  1       11.659858  29.621809  31.011087
 388  1       23.424689   6.092147   7.481425
 389  1       23.424689   6.092147  19.246256
 390  1       23.424689   6.092147  31.011087
 391  1       23.424689  17.856978   7.481425
 392  1       23.424689  17.856978  19.246256
 393  1       23.424689  17.856978  31.011087
 394  1       23.424689  29.621809   7.481425
 395  1       23.424689  29.621809  19.246256
 396  1       23.424689  29.621809  31.011087
 397  1       35.189520   6.092147   7.481425
 398  1       35.189520   6.092147  19.246256
 399  1       35.189520   6.092147  31.011087
 400  1       35.189520  17.856978   7.481425
 401  1       35.189520  17.856978  19.246256
 402  1       35.189520  17.856978  31.011087
 403  1       35.189520  29.621809   7.481425
 404  1       35.189520  29.621809  19.246256
 405  1       35.189520  29.621809  31.011087
 406  1       11.379404   3.075569   5.720826
 407  1       11.379404   3.075569  17.485657
 408  1       11.379404   3.075569  29.250488
 409  1       11.379404  14.840400   5.720826
 410  1       11.379404  14.840400  17.485657
 411  1       11.379404  14.840400  29.250488
 412  1       11.379404  26.605231   5.720826
 413  1       11.379404  26.605231  17.485657
 414  1       11.379404  26.605231  29.250488
 415  1       23.144235   3.075569   5.720826
 416  1       23.144235   3.075569  17.485657
 417  1       23.144235   3.075569  29.250488
 418  1       23.144235  14.840400   5.720826
 419  1       23.144235  14.840400  17.485657
 420  1       23.144235  14.840400  29.250488
 421  1       23.144235  26.605231   5.720826
 422  1       23.144235  26.605231  17.485657
 423  1       23.144235  26.605231  29.250488
 424  1       34.909066   3.075569   5.720826
 425  1       34.909066   3.075569  17.485657
 426  1       34.909066   3.075569  29.250488
 427  1       34.909066  14.840400   5.720826
 428  1       34.909066  14.840400  17.485657
 429  1       34.909066  14.840400  29.250488
 430  1       34.909066  26.605231   5.720826
 431  1       34.909066  26.605231  17.485657
 432  1       34.909066  26.605231  29.250488
 433  1        9.478137   5.447925   7.574492
 434  1        9.478137   5.447925  19.339323
 435  1        9.478137   5.447925  31.104154
 436  1        9.478137  17.212756   7.574492
 437  1        9.478137  17.212756  19.339323
 438  1        9.478137  17.212756  31.104154
 439  1        9.478137  28.977587   7.574492
 440  1        9.478137  28.977587  19.339323
 441  1        9.478137  28.977587  31.104154
 442  1       21.242968   5.447925   7.574492
 443  1       21.242968   5.447925  19.339323
 444  1       21.242968   5.447925  31.104154
 445  1       21.242968  17.212756   7.574492
 446  1       21.242968  17.212756  19.339323
 447  1       21.242968  17.212756  31.104154
 448  1       21.242968  28.977587   7.574492
 449  1       21.242968  28.977587  19.339323
 450  1       21.242968  28.977587  31.104154
 451  1       33.007799   5.447925   7.574492
 452  1       33.007799   5.447925  19.339323
 453  1       33.007799   5.447925  31.104154
 454  1       33.007799  17.212756   7.574492
 455  1       33.007799  17.212756  19.339323
 456  1       33.007799  17.212756  31.104154
 457  1       33.007799  28.977587   7.574492
 458  1       33.007799  28.977587  19.339323
 459  1       33.007799  28.977587  31.104154
 460  1        5.477031   6.180967   3.029571
 461  1        5.477031   6.180967  14.794402
 462  1        5.477031   6.180967  26.559233
 463  1        5.477031  17.945798   3.029571
 464  1        5.477031  17.945798  14.794402
 465  1        5.477031  17.945798  26.559233
 466  1        5.477031  29.710629   3.029571
 467  1        5.477031  29.710629  14.794402
 468  1        5.477031  29.710629  26.559233
 469  1       17.241862   6.180967   3.029571
 470  1       17.241862   6.180967  14.794402
 471  1       17.241862   6.180967  26.559233
 472  1       17.241862  17.945798   3.029571
 473  1       17.241862  17.945798  14.794402
 474  1       17.241862  17.945798  26.559233
 475  1       17.241862  29.710629   3.029571
 476  1       17.241862  29.710629  14.794402
 477  1       17.241862  29.710629  26.559233
 478  1       29.006693   6.180967   3.029571
 479  1       29.006693   6.180967  14.794402
 480  1       29.006693   6.180967  26.559233
 481  1       29.006693  17.945798   3.029571
 482  1       29.006693  17.945798  14.794402
 483  1       29.006693  17.945798  26.559233
 484  1       29.006693  29.710629   3.029571
 485  1       29.006693  29.710629  14.794402
 486  1       29.006693  29.710629  26.559233
 487  1        9.231095   3.053755   0.030896
 488  1        9.231095   3.053755  11.795727
 489  1        9.231095   3.053755  23.560558
 490  1        9.231095  14.818586   0.030896
 491  1        9.231095  14.818586  11.795727
 492  1        9.231095  14.818586  23.560558
 493  1        9.231095  26.583417   0.030896
 494  1        9.231095  26.583417  11.795727
 495  1        9.231095  26.583417  23.560558
 496  1       20.995927   3.053755   0.030896
 497  1       20.995927   3.053755  11.795727
 498  1       20.995927   3.053755  23.560558
 499  1       20.995927  14.818586   0.030896
 500  1       20.995927  14.818586  11.795727
 501  1       20.995927  14.818586  23.560558
 502  1       20.995927  26.583417   0.030896
 503  1       20.995927  26.583417  11.795727
 504  1       20.995927  26.583417  23.560558
 505  1       32.760757   3.053755   0.030896
 506  1       32.760757   3.053755  11.795727
 507  1       32.760757   3.053755  23.560558
 508  1       32.760757  14.818586   0.030896
 509  1       32.760757  14.818586  11.795727
 510  1       32.760757  14.818586  23.560558
 511  1       32.760757  26.583417   0.030896
 512  1       32.760757  26.583417  11.795727
 513  1       32.760757  26.583417  23.560558
 514  1        2.265806   0.088082   7.164577
 515  1        2.265806   0.088082  18.929408
 516  1        2.265806   0.088082  30.694239
 517  1        2.265806  11.852913   7.164577
 518  1        2.265806  11.852913  18.929408
 519  1        2.265806  11.852913  30.694239
 520  1        2.265806  23.617744   7.164577
 521  1        2.265806  23.617744  18.929408
 522  1        2.265806  23.617744  30.694239
 523  1       14.030637   0.088082   7.164577
 524  1       14.030637   0.088082  18.929408
 525  1       14.030637   0.088082  30.694239
 526  1       14.030637  11.852913   7.164577
 527  1       14.030637  11.852913  18.929408
 528  1       14.030637  11.852913  30.694239
 529  1       14.030637  23.617744   7.164577
 530  1       14.030637  23.617744  18.929408
 531  1       14.030637  23.617744  30.694239
 532  1       25.795468   0.088082   7.164577
 533  1       25.795468   0.088082  18.929408
 534  1       25.795468   0.088082  30.694239
 535  1       25.795468  11.852913   7.164577
 536  1       25.795468  11.852913  18.929408
 537  1       25.795468  11.852913  30.694239
 538  1       25.795468  23.617744   7.164577
 539  1       25.795468  23.617744  18.929408
 540  1       25.795468  23.617744  30.694239
 541  1        4.855191   7.717036   1.560000
 542  1        4.855191   7.717036  13.324832
 543  1        4.855191   7.717036  25.089662
 544  1        4.855191  19.481867   1.560000
 545  1        4.855191  19.481867  13.324832
 546  1        4.855191  19.481867  25.089662
 547  1        4.855191  31.246698   1.560000
 548  1        4.855191  31.246698  13.324832
 549  1        4.855191  31.246698  25.089662
 550  1       16.620022   7.717036   1.560000
 551  1       16.620022   7.717036  13.324832
 552  1       16.620022   7.717036  25.089662
 553  1       16.620022  19.481867   1.560000
 554  1       16.620022  19.481867  13.324832
 555  1       16.620022  19.481867  25.089662
 556  1       16.620022  31.246698   1.560000
 557  1       16.620022  31.246698  13.324832
 558  1       16.620022  31.246698  25.089662
 559  1       28.384853   7.717036   1.560000
 560  1       28.384853   7.717036  13.324832
 561  1       28.384853   7.717036  25.089662
 562  1       28.384853  19.481867   1.560000
 563  1       28.384853  19.481867  13.324832
 564  1       28.384853  19.481867  25.089662
 565  1       28.384853  31.246698   1.560000
 566  1       28.384853  31.246698  13.324832
 567  1       28.384853  31.246698  25.089662
 568  1        7.915674   9.133449   3.868408
 569  1        7.915674   9.133449  15.633239
 570  1        7.915674   9.133449  27.398070
 571  1        7.915674  20.898280   3.868408
 572  1        7.915674  20.898280  15.633239
 573  1        7.915674  20.898280  27.398070
 574  1        7.915674  32.663111   3.868408
 575  1        7.915674  32.663111  15.633239
 576  1        7.915674  32.663111  27.398070
 577  1       19.680505   9.133449   3.868408
 578  1       19.680505   9.133449  15.633239
 579  1       19.680505   9.133449  27.398070
 580  1       19.680505  20.898280   3.868408
 581  1       19.680505  20.898280  15.633239
 582  1       19.680505  20.898280  27.398070
 583  1       19.680505  32.663111   3.868408
 584  1       19.680505  32.663111  15.633239
 585  1       19.680505  32.663111  27.398070
 586  1       31.445336   9.133449   3.868408
 587  1       31.445336   9.133449  15.633239
 588  1       31.445336   9.133449  27.398070
 589  1       31.445336  20.898280   3.868408
 590  1       31.445336  20.898280  15.633239
 591  1       31.445336  20.898280  27.398070
 592  1       31.445336  32.663111   3.868408
 593  1       31.445336  32.663111  15.633239
 594  1       31.445336  32.663111  27.398070
 595  1        2.917579   7.231738   1.560584
 596  1        2.917579   7.231738  13.325415
 597  1        2.917579   7.231738  25.090246
 598  1        2.917579  18.996569   1.560584
 599  1        2.917579  18.996569  13.325415
 600  1        2.917579  18.996569  25.090246
 601  1        2.917579  30.761400   1.560584
 602  1        2.917579  30.761400  13.325415
 603  1        2.917579  30.761400  25.090246
 604  1       14.682410   7.231738   1.560584
 605  1       14.682410   7.231738  13.325415
 606  1       14.682410   7.231738  25.090246
 607  1       14.682410  18.996569   1.560584
 608  1       14.682410  18.996569  13.325415
 609  1       14.682410  18.996569  25.090246
 610  1       14.682410  30.761400   1.560584
 611  1       14.682410  30.761400  13.325415
 612  1       14.682410  30.761400  25.090246
 613  1       26.447241   7.231738   1.560584
 614  1       26.447241   7.231738  13.325415
 615  1       26.447241   7.231738  25.090246
 616  1       26.447241  18.996569   1.560584
 617  1       26.447241  18.996569  13.325415
 618  1       26.447241  18.996569  25.090246
 619  1       26.447241  30.761400   1.560584
 620  1       26.447241  30.761400  13.325415
 621  1       26.447241  30.761400  25.090246
 622  1        3.049055   8.935128   9.763463
 623  1        3.049055   8.935128  21.528294
 624  1        3.049055   8.935128  33.293124
 625  1        3.049055  20.699959   9.763463
 626  1        3.049055  20.699959  21.528294
 627  1        3.049055  20.699959  33.293124
 628  1        3.049055  32.464790   9.763463
 629  1        3.049055  32.464790  21.528294
 630  1        3.049055  32.464790  33.293124
 631  1       14.813886   8.935128   9.763463
 632  1       14.813886   8.935128  21.528294
 633  1       14.813886   8.935128  33.293124
 634  1       14.813886  20.699959   9.763463
 635  1       14.813886  20.699959  21.528294
 636  1       14.813886  20.699959  33.293124
 637  1       14.813886  32.464790   9.763463
 638  1       14.813886  32.464790  21.528294
 639  1       14.813886  32.464790  33.293124
 640  1       26.578717   8.935128   9.763463
 641  1       26.578717   8.935128  21.528294
 642  1       26.578717   8.935128  33.293124
 643  1       26.578717  20.699959   9.763463
 644  1       26.578717  20.699959  21.528294
 645  1       26.578717  20.699959  33.293124
 646  1       26.578717  32.464790   9.763463
 647  1       26.578717  32.464790  21.528294