# Converted from POSCAR to lammps format

31250 atoms
2 atom types

0.000000   60.000000   xlo xhi
0.000000   60.000000   ylo yhi
0.000000   60.000000   zlo zhi

  0.000000    0.000000    0.000000   xy xz yz

Atoms

   1  1        0.278527   0.133692  11.788697
   2  1        0.278527   0.133692  23.788697
   3  1        0.278527   0.133692  35.788697
   4  1        0.278527   0.133692  47.788697
   5  1        0.278527   0.133692  59.788697
   6  1        0.278527  12.133692  11.788697
   7  1        0.278527  12.133692  23.788697
   8  1        0.278527  12.133692  35.788697
   9  1        0.278527  12.133692  47.788697
  10  1        0.278527  12.133692  59.788697
  11  1        0.278527  24.133692  11.788697
  12  1        0.278527  24.133692  23.788697
  13  1        0.278527  24.133692  35.788697
  14  1        0.278527  24.133692  47.788697
  15  1        0.278527  24.133692  59.788697
  16  1        0.278527  36.133692  11.788697
  17  1        0.278527  36.133692  23.788697
  18  1        0.278527  36.133692  35.788697
  19  1        0.278527  36.133692  47.788697
  20  1        0.278527  36.133692  59.788697
  21  1        0.278527  48.133692  11.788697
  22  1        0.278527  48.133692  23.788697
  23  1        0.278527  48.133692  35.788697
  24  1        0.278527  48.133692  47.788697
  25  1        0.278527  48.133692  59.788697
  26  1       12.278527   0.133692  11.788697
  27  1       12.278527   0.133692  23.788697
  28  1       12.278527   0.133692  35.788697
  29  1       12.278527   0.133692  47.788697
  30  1       12.278527   0.133692  59.788697
  31  1       12.278527  12.133692  11.788697
  32  1       12.278527  12.133692  23.788697
  33  1       12.278527  12.133692  35.788697
  34  1       12.278527  12.133692  47.788697
  35  1       12.278527  12.133692  59.788697
  36  1       12.278527  24.133692  11.788697
  37  1       12.278527  24.133692  23.788697
  38  1       12.278527  24.133692  35.788697
  39  1       12.278527  24.133692  47.788697
  40  1       12.278527  24.133692  59.788697
  41  1       12.278527  36.133692  11.788697
  42  1       12.278527  36.133692  23.788697
  43  1       12.278527  36.133692  35.788697
  44  1       12.278527  36.133692  47.788697
  45  1       12.278527  36.133692  59.788697
  46  1       12.278527  48.133692  11.788697
  47  1       12.278527  48.133692  23.788697
  48  1       12.278527  48.133692  35.788697
  49  1       12.278527  48.133692  47.788697
  50  1       12.278527  48.133692  59.788697
  51  1       24.278527   0.133692  11.788697
  52  1       24.278527   0.133692  23.788697
  53  1       24.278527   0.133692  35.788697
  54  1       24.278527   0.133692  47.788697
  55  1       24.278527   0.133692  59.788697
  56  1       24.278527  12.133692  11.788697
  57  1       24.278527  12.133692  23.788697
  58  1       24.278527  12.133692  35.788697
  59  1       24.278527  12.133692  47.788697
  60  1       24.278527  12.133692  59.788697
  61  1       24.278527  24.133692  11.788697
  62  1       24.278527  24.133692  23.788697
  63  1       24.278527  24.133692  35.788697
  64  1       24.278527  24.133692  47.788697
  65  1       24.278527  24.133692  59.788697
  66  1       24.278527  36.133692  11.788697
  67  1       24.278527  36.133692  23.788697
  68  1       24.278527  36.133692  35.788697
  69  1       24.278527  36.133692  47.788697
  70  1       24.278527  36.133692  59.788697
  71  1       24.278527  48.133692  11.788697
  72  1       24.278527  48.133692  23.788697
  73  1       24.278527  48.133692  35.788697
  74  1       24.278527  48.133692  47.788697
  75  1       24.278527  48.133692  59.788697
  76  1       36.278527   0.133692  11.788697
  77  1       36.278527   0.133692  23.788697
  78  1       36.278527   0.133692  35.788697
  79  1       36.278527   0.133692  47.788697
  80  1       36.278527   0.133692  59.788697
  81  1       36.278527  12.133692  11.788697
  82  1       36.278527  12.133692  23.788697
  83  1       36.278527  12.133692  35.788697
  84  1       36.278527  12.133692  47.788697
  85  1       36.278527  12.133692  59.788697
  86  1       36.278527  24.133692  11.788697
  87  1       36.278527  24.133692  23.788697
  88  1       36.278527  24.133692  35.788697
  89  1       36.278527  24.133692  47.788697
  90  1       36.278527  24.133692  59.788697
  91  1       36.278527  36.133692  11.788697
  92  1       36.278527  36.133692  23.788697
  93  1       36.278527  36.133692  35.788697
  94  1       36.278527  36.133692  47.788697
  95  1       36.278527  36.133692  59.788697
  96  1       36.278527  48.133692  11.788697
  97  1       36.278527  48.133692  23.788697
  98  1       36.278527  48.133692  35.788697
  99  1       36.278527  48.133692  47.788697
 100  1       36.278527  48.133692  59.788697
 101  1       48.278527   0.133692  11.788697
 102  1       48.278527   0.133692  23.788697
 103  1       48.278527   0.133692  35.788697
 104  1       48.278527   0.133692  47.788697
 105  1       48.278527   0.133692  59.788697
 106  1       48.278527  12.133692  11.788697
 107  1       48.278527  12.133692  23.788697
 108  1       48.278527  12.133692  35.788697
 109  1       48.278527  12.133692  47.788697
 110  1       48.278527  12.133692  59.788697
 111  1       48.278527  24.133692  11.788697
 112  1       48.278527  24.133692  23.788697
 113  1       48.278527  24.133692  35.788697
 114  1       48.278527  24.133692  47.788697
 115  1       48.278527  24.133692  59.788697
 116  1       48.278527  36.133692  11.788697
 117  1       48.278527  36.133692  23.788697
 118  1       48.278527  36.133692  35.788697
 119  1       48.278527  36.133692  47.788697
 120  1       48.278527  36.133692  59.788697
 121  1       48.278527  48.133692  11.788697
 122  1       48.278527  48.133692  23.788697
 123  1       48.278527  48.133692  35.788697
 124  1       48.278527  48.133692  47.788697
 125  1       48.278527  48.133692  59.788697
 126  1       11.515412   0.099798   2.616737
 127  1       11.515412   0.099798  14.616737
 128  1       11.515412   0.099798  26.616737
 129  1       11.515412   0.099798  38.616737
 130  1       11.515412   0.099798  50.616737
 131  1       11.515412  12.099798   2.616737
 132  1       11.515412  12.099798  14.616737
 133  1       11.515412  12.099798  26.616737
 134  1       11.515412  12.099798  38.616737
 135  1       11.515412  12.099798  50.616737
 136  1       11.515412  24.099798   2.616737
 137  1       11.515412  24.099798  14.616737
 138  1       11.515412  24.099798  26.616737
 139  1       11.515412  24.099798  38.616737
 140  1       11.515412  24.099798  50.616737
 141  1       11.515412  36.099798   2.616737
 142  1       11.515412  36.099798  14.616737
 143  1       11.515412  36.099798  26.616737
 144  1       11.515412  36.099798  38.616737
 145  1       11.515412  36.099798  50.616737
 146  1       11.515412  48.099798   2.616737
 147  1       11.515412  48.099798  14.616737
 148  1       11.515412  48.099798  26.616737
 149  1       11.515412  48.099798  38.616737
 150  1       11.515412  48.099798  50.616737
 151  1       23.515412   0.099798   2.616737
 152  1       23.515412   0.099798  14.616737
 153  1       23.515412   0.099798  26.616737
 154  1       23.515412   0.099798  38.616737
 155  1       23.515412   0.099798  50.616737
 156  1       23.515412  12.099798   2.616737
 157  1       23.515412  12.099798  14.616737
 158  1       23.515412  12.099798  26.616737
 159  1       23.515412  12.099798  38.616737
 160  1       23.515412  12.099798  50.616737
 161  1       23.515412  24.099798   2.616737
 162  1       23.515412  24.099798  14.616737
 163  1       23.515412  24.099798  26.616737
 164  1       23.515412  24.099798  38.616737
 165  1       23.515412  24.099798  50.616737
 166  1       23.515412  36.099798   2.616737
 167  1       23.515412  36.099798  14.616737
 168  1       23.515412  36.099798  26.616737
 169  1       23.515412  36.099798  38.616737
 170  1       23.515412  36.099798  50.616737
 171  1       23.515412  48.099798   2.616737
 172  1       23.515412  48.099798  14.616737
 173  1       23.515412  48.099798  26.616737
 174  1       23.515412  48.099798  38.616737
 175  1       23.515412  48.099798  50.616737
 176  1       35.515412   0.099798   2.616737
 177  1       35.515412   0.099798  14.616737
 178  1       35.515412   0.099798  26.616737
 179  1       35.515412   0.099798  38.616737
 180  1       35.515412   0.099798  50.616737
 181  1       35.515412  12.099798   2.616737
 182  1       35.515412  12.099798  14.616737
 183  1       35.515412  12.099798  26.616737
 184  1       35.515412  12.099798  38.616737
 185  1       35.515412  12.099798  50.616737
 186  1       35.515412  24.099798   2.616737
 187  1       35.515412  24.099798  14.616737
 188  1       35.515412  24.099798  26.616737
 189  1       35.515412  24.099798  38.616737
 190  1       35.515412  24.099798  50.616737
 191  1       35.515412  36.099798   2.616737
 192  1       35.515412  36.099798  14.616737
 193  1       35.515412  36.099798  26.616737
 194  1       35.515412  36.099798  38.616737
 195  1       35.515412  36.099798  50.616737
 196  1       35.515412  48.099798   2.616737
 197  1       35.515412  48.099798  14.616737
 198  1       35.515412  48.099798  26.616737
 199  1       35.515412  48.099798  38.616737
 200  1       35.515412  48.099798  50.616737
 201  1       47.515412   0.099798   2.616737
 202  1       47.515412   0.099798  14.616737
 203  1       47.515412   0.099798  26.616737
 204  1       47.515412   0.099798  38.616737
 205  1       47.515412   0.099798  50.616737
 206  1       47.515412  12.099798   2.616737
 207  1       47.515412  12.099798  14.616737
 208  1       47.515412  12.099798  26.616737
 209  1       47.515412  12.099798  38.616737
 210  1       47.515412  12.099798  50.616737
 211  1       47.515412  24.099798   2.616737
 212  1       47.515412  24.099798  14.616737
 213  1       47.515412  24.099798  26.616737
 214  1       47.515412  24.099798  38.616737
 215  1       47.515412  24.099798  50.616737
 216  1       47.515412  36.099798   2.616737
 217  1       47.515412  36.099798  14.616737
 218  1       47.515412  36.099798  26.616737
 219  1       47.515412  36.099798  38.616737
 220  1       47.515412  36.099798  50.616737
 221  1       47.515412  48.099798   2.616737
 222  1       47.515412  48.099798  14.616737
 223  1       47.515412  48.099798  26.616737
 224  1       47.515412  48.099798  38.616737
 225  1       47.515412  48.099798  50.616737
 226  1       59.515412   0.099798   2.616737
 227  1       59.515412   0.099798  14.616737
 228  1       59.515412   0.099798  26.616737
 229  1       59.515412   0.099798  38.616737
 230  1       59.515412   0.099798  50.616737
 231  1       59.515412  12.099798   2.616737
 232  1       59.515412  12.099798  14.616737
 233  1       59.515412  12.099798  26.616737
 234  1       59.515412  12.099798  38.616737
 235  1       59.515412  12.099798  50.616737
 236  1       59.515412  24.099798   2.616737
 237  1       59.515412  24.099798  14.616737
 238  1       59.515412  24.099798  26.616737
 239  1       59.515412  24.099798  38.616737
 240  1       59.515412  24.099798  50.616737
 241  1       59.515412  36.099798   2.616737
 242  1       59.515412  36.099798  14.616737
 243  1       59.515412  36.099798  26.616737
 244  1       59.515412  36.099798  38.616737
 245  1       59.515412  36.099798  50.616737
 246  1       59.515412  48.099798   2.616737
 247  1       59.515412  48.099798  14.616737
 248  1       59.515412  48.099798  26.616737
 249  1       59.515412  48.099798  38.616737
 250  1       59.515412  48.099798  50.616737
 251  1       11.816036  11.658297   4.461622
 252  1       11.816036  11.658297  16.461622
 253  1       11.816036  11.658297  28.461622
 254  1       11.816036  11.658297  40.461622
 255  1       11.816036  11.658297  52.461622
 256  1       11.816036  23.658297   4.461622
 257  1       11.816036  23.658297  16.461622
 258  1       11.816036  23.658297  28.461622
 259  1       11.816036  23.658297  40.461622
 260  1       11.816036  23.658297  52.461622
 261  1       11.816036  35.658297   4.461622
 262  1       11.816036  35.658297  16.461622
 263  1       11.816036  35.658297  28.461622
 264  1       11.816036  35.658297  40.461622
 265  1       11.816036  35.658297  52.461622
 266  1       11.816036  47.658297   4.461622
 267  1       11.816036  47.658297  16.461622
 268  1       11.816036  47.658297  28.461622
 269  1       11.816036  47.658297  40.461622
 270  1       11.816036  47.658297  52.461622
 271  1       11.816036  59.658297   4.461622
 272  1       11.816036  59.658297  16.461622
 273  1       11.816036  59.658297  28.461622
 274  1       11.816036  59.658297  40.461622
 275  1       11.816036  59.658297  52.461622
 276  1       23.816036  11.658297   4.461622
 277  1       23.816036  11.658297  16.461622
 278  1       23.816036  11.658297  28.461622
 279  1       23.816036  11.658297  40.461622
 280  1       23.816036  11.658297  52.461622
 281  1       23.816036  23.658297   4.461622
 282  1       23.816036  23.658297  16.461622
 283  1       23.816036  23.658297  28.461622
 284  1       23.816036  23.658297  40.461622
 285  1       23.816036  23.658297  52.461622
 286  1       23.816036  35.658297   4.461622
 287  1       23.816036  35.658297  16.461622
 288  1       23.816036  35.658297  28.461622
 289  1       23.816036  35.658297  40.461622
 290  1       23.816036  35.658297  52.461622
 291  1       23.816036  47.658297   4.461622
 292  1       23.816036  47.658297  16.461622
 293  1       23.816036  47.658297  28.461622
 294  1       23.816036  47.658297  40.461622
 295  1       23.816036  47.658297  52.461622
 296  1       23.816036  59.658297   4.461622
 297  1       23.816036  59.658297  16.461622
 298  1       23.816036  59.658297  28.461622
 299  1       23.816036  59.658297  40.461622
 300  1       23.816036  59.658297  52.461622
 301  1       35.816036  11.658297   4.461622
 302  1       35.816036  11.658297  16.461622
 303  1       35.816036  11.658297  28.461622
 304  1       35.816036  11.658297  40.461622
 305  1       35.816036  11.658297  52.461622
 306  1       35.816036  23.658297   4.461622
 307  1       35.816036  23.658297  16.461622
 308  1       35.816036  23.658297  28.461622
 309  1       35.816036  23.658297  40.461622
 310  1       35.816036  23.658297  52.461622
 311  1       35.816036  35.658297   4.461622
 312  1       35.816036  35.658297  16.461622
 313  1       35.816036  35.658297  28.461622
 314  1       35.816036  35.658297  40.461622
 315  1       35.816036  35.658297  52.461622
 316  1       35.816036  47.658297   4.461622
 317  1       35.816036  47.658297  16.461622
 318  1       35.816036  47.658297  28.461622
 319  1       35.816036  47.658297  40.461622
 320  1       35.816036  47.658297  52.461622
 321  1       35.816036  59.658297   4.461622
 322  1       35.816036  59.658297  16.461622
 323  1       35.816036  59.658297  28.461622
 324  1       35.816036  59.658297  40.461622
 325  1       35.816036  59.658297  52.461622
 326  1       47.816036  11.658297   4.461622
 327  1       47.816036  11.658297  16.461622
 328  1       47.816036  11.658297  28.461622
 329  1       47.816036  11.658297  40.461622
 330  1       47.816036  11.658297  52.461622
 331  1       47.816036  23.658297   4.461622
 332  1       47.816036  23.658297  16.461622
 333  1       47.816036  23.658297  28.461622
 334  1       47.816036  23.658297  40.461622
 335  1       47.816036  23.658297  52.461622
 336  1       47.816036  35.658297   4.461622
 337  1       47.816036  35.658297  16.461622
 338  1       47.816036  35.658297  28.461622
 339  1       47.816036  35.658297  40.461622
 340  1       47.816036  35.658297  52.461622
 341  1       47.816036  47.658297   4.461622
 342  1       47.816036  47.658297  16.461622
 343  1       47.816036  47.658297  28.461622
 344  1       47.816036  47.658297  40.461622
 345  1       47.816036  47.658297  52.461622
 346  1       47.816036  59.658297   4.461622
 347  1       47.816036  59.658297  16.461622
 348  1       47.816036  59.658297  28.461622
 349  1       47.816036  59.658297  40.461622
 350  1       47.816036  59.658297  52.461622
 351  1       59.816036  11.658297   4.461622
 352  1       59.816036  11.658297  16.461622
 353  1       59.816036  11.658297  28.461622
 354  1       59.816036  11.658297  40.461622
 355  1       59.816036  11.658297  52.461622
 356  1       59.816036  23.658297   4.461622
 357  1       59.816036  23.658297  16.461622
 358  1       59.816036  23.658297  28.461622
 359  1       59.816036  23.658297  40.461622
 360  1       59.816036  23.658297  52.461622
 361  1       59.816036  35.658297   4.461622
 362  1       59.816036  35.658297  16.461622
 363  1       59.816036  35.658297  28.461622
 364  1       59.816036  35.658297  40.461622
 365  1       59.816036  35.658297  52.461622
 366  1       59.816036  47.658297   4.461622
 367  1       59.816036  47.658297  16.461622
 368  1       59.816036  47.658297  28.461622
 369  1       59.816036  47.658297  40.461622
 370  1       59.816036  47.658297  52.461622
 371  1       59.816036  59.658297   4.461622
 372  1       59.816036  59.658297  16.461622
 373  1       59.816036  59.658297  28.461622
 374  1       59.816036  59.658297  40.461622
 375  1       59.816036  59.658297  52.461622
 376  1       11.481010   0.209291   7.256816
 377  1       11.481010   0.209291  19.256816
 378  1       11.481010   0.209291  31.256816
 379  1       11.481010   0.209291  43.256816
 380  1       11.481010   0.209291  55.256816
 381  1       11.481010  12.209291   7.256816
 382  1       11.481010  12.209291  19.256816
 383  1       11.481010  12.209291  31.256816
 384  1       11.481010  12.209291  43.256816
 385  1       11.481010  12.209291  55.256816
 386  1       11.481010  24.209291   7.256816
 387  1       11.481010  24.209291  19.256816
 388  1       11.481010  24.209291  31.256816
 389  1       11.481010  24.209291  43.256816
 390  1       11.481010  24.209291  55.256816
 391  1       11.481010  36.209291   7.256816
 392  1       11.481010  36.209291  19.256816
 393  1       11.481010  36.209291  31.256816
 394  1       11.481010  36.209291  43.256816
 395  1       11.481010  36.209291  55.256816
 396  1       11.481010  48.209291   7.256816
 397  1       11.481010  48.209291  19.256816
 398  1       11.481010  48.209291  31.256816
 399  1       11.481010  48.209291  43.256816
 400  1       11.481010  48.209291  55.256816
 401  1       23.481010   0.209291   7.256816
 402  1       23.481010   0.209291  19.256816
 403  1       23.481010   0.209291  31.256816
 404  1       23.481010   0.209291  43.256816
 405  1       23.481010   0.209291  55.256816
 406  1       23.481010  12.209291   7.256816
 407  1       23.481010  12.209291  19.256816
 408  1       23.481010  12.209291  31.256816
 409  1       23.481010  12.209291  43.256816
 410  1       23.481010  12.209291  55.256816
 411  1       23.481010  24.209291   7.256816
 412  1       23.481010  24.209291  19.256816
 413  1       23.481010  24.209291  31.256816
 414  1       23.481010  24.209291  43.256816
 415  1       23.481010  24.209291  55.256816
 416  1       23.481010  36.209291   7.256816
 417  1       23.481010  36.209291  19.256816
 418  1       23.481010  36.209291  31.256816
 419  1       23.481010  36.209291  43.256816
 420  1       23.481010  36.209291  55.256816
 421  1       23.481010  48.209291   7.256816
 422  1       23.481010  48.209291  19.256816
 423  1       23.481010  48.209291  31.256816
 424  1       23.481010  48.209291  43.256816
 425  1       23.481010  48.209291  55.256816
 426  1       35.481010   0.209291   7.256816
 427  1       35.481010   0.209291  19.256816
 428  1       35.481010   0.209291  31.256816
 429  1       35.481010   0.209291  43.256816
 430  1       35.481010   0.209291  55.256816
 431  1       35.481010  12.209291   7.256816
 432  1       35.481010  12.209291  19.256816
 433  1       35.481010  12.209291  31.256816
 434  1       35.481010  12.209291  43.256816
 435  1       35.481010  12.209291  55.256816
 436  1       35.481010  24.209291   7.256816
 437  1       35.481010  24.209291  19.256816
 438  1       35.481010  24.209291  31.256816
 439  1       35.481010  24.209291  43.256816
 440  1       35.481010  24.209291  55.256816
 441  1       35.481010  36.209291   7.256816
 442  1       35.481010  36.209291  19.256816
 443  1       35.481010  36.209291  31.256816
 444  1       35.481010  36.209291  43.256816
 445  1       35.481010  36.209291  55.256816
 446  1       35.481010  48.209291   7.256816
 447  1       35.481010  48.209291  19.256816
 448  1       35.481010  48.209291  31.256816
 449  1       35.481010  48.209291  43.256816
 450  1       35.481010  48.209291  55.256816
 451  1       47.481010   0.209291   7.256816
 452  1       47.481010   0.209291  19.256816
 453  1       47.481010   0.209291  31.256816
 454  1       47.481010   0.209291  43.256816
 455  1       47.481010   0.209291  55.256816
 456  1       47.481010  12.209291   7.256816
 457  1       47.481010  12.209291  19.256816
 458  1       47.481010  12.209291  31.256816
 459  1       47.481010  12.209291  43.256816
 460  1       47.481010  12.209291  55.256816
 461  1       47.481010  24.209291   7.256816
 462  1       47.481010  24.209291  19.256816
 463  1       47.481010  24.209291  31.256816
 464  1       47.481010  24.209291  43.256816
 465  1       47.481010  24.209291  55.256816
 466  1       47.481010  36.209291   7.256816
 467  1       47.481010  36.209291  19.256816
 468  1       47.481010  36.209291  31.256816
 469  1       47.481010  36.209291  43.256816
 470  1       47.481010  36.209291  55.256816
 471  1       47.481010  48.209291   7.256816
 472  1       47.481010  48.209291  19.256816
 473  1       47.481010  48.209291  31.256816
 474  1       47.481010  48.209291  43.256816
 475  1       47.481010  48.209291  55.256816
 476  1       59.481010   0.209291   7.256816
 477  1       59.481010   0.209291  19.256816
 478  1       59.481010   0.209291  31.256816
 479  1       59.481010   0.209291  43.256816
 480  1       59.481010   0.209291  55.256816
 481  1       59.481010  12.209291   7.256816
 482  1       59.481010  12.209291  19.256816
 483  1       59.481010  12.209291  31.256816
 484  1       59.481010  12.209291  43.256816
 485  1       59.481010  12.209291  55.256816
 486  1       59.481010  24.209291   7.256816
 487  1       59.481010  24.209291  19.256816
 488  1       59.481010  24.209291  31.256816
 489  1       59.481010  24.209291  43.256816
 490  1       59.481010  24.209291  55.256816
 491  1       59.481010  36.209291   7.256816
 492  1       59.481010  36.209291  19.256816
 493  1       59.481010  36.209291  31.256816
 494  1       59.481010  36.209291  43.256816
 495  1       59.481010  36.209291  55.256816
 496  1       59.481010  48.209291   7.256816
 497  1       59.481010  48.209291  19.256816
 498  1       59.481010  48.209291  31.256816
 499  1       59.481010  48.209291  43.256816
 500  1       59.481010  48.209291  55.256816
 501  1       11.885929  11.799160   9.628807
 502  1       11.885929  11.799160  21.628807
 503  1       11.885929  11.799160  33.628807
 504  1       11.885929  11.799160  45.628807
 505  1       11.885929  11.799160  57.628807
 506  1       11.885929  23.799160   9.628807
 507  1       11.885929  23.799160  21.628807
 508  1       11.885929  23.799160  33.628807
 509  1       11.885929  23.799160  45.628807
 510  1       11.885929  23.799160  57.628807
 511  1       11.885929  35.799160   9.628807
 512  1       11.885929  35.799160  21.628807
 513  1       11.885929  35.799160  33.628807
 514  1       11.885929  35.799160  45.628807
 515  1       11.885929  35.799160  57.628807
 516  1       11.885929  47.799160   9.628807
 517  1       11.885929  47.799160  21.628807
 518  1       11.885929  47.799160  33.628807
 519  1       11.885929  47.799160  45.628807
 520  1       11.885929  47.799160  57.628807
 521  1       11.885929  59.799160   9.628807
 522  1       11.885929  59.799160  21.628807
 523  1       11.885929  59.799160  33.628807
 524  1       11.885929  59.799160  45.628807
 525  1       11.885929  59.799160  57.628807
 526  1       23.885929  11.799160   9.628807
 527  1       23.885929  11.799160  21.628807
 528  1       23.885929  11.799160  33.628807
 529  1       23.885929  11.799160  45.628807
 530  1       23.885929  11.799160  57.628807
 531  1       23.885929  23.799160   9.628807
 532  1       23.885929  23.799160  21.628807
 533  1       23.885929  23.799160  33.628807
 534  1       23.885929  23.799160  45.628807
 535  1       23.885929  23.799160  57.628807
 536  1       23.885929  35.799160   9.628807
 537  1       23.885929  35.799160  21.628807
 538  1       23.885929  35.799160  33.628807
 539  1       23.885929  35.799160  45.628807
 540  1       23.885929  35.799160  57.628807
 541  1       23.885929  47.799160   9.628807
 542  1       23.885929  47.799160  21.628807
 543  1       23.885929  47.799160  33.628807
 544  1       23.885929  47.799160  45.628807
 545  1       23.885929  47.799160  57.628807
 546  1       23.885929  59.799160   9.628807
 547  1       23.885929  59.799160  21.628807
 548  1       23.885929  59.799160  33.628807
 549  1       23.885929  59.799160  45.628807
 550  1       23.885929  59.799160  57.628807
 551  1       35.885929  11.799160   9.628807
 552  1       35.885929  11.799160  21.628807
 553  1       35.885929  11.799160  33.628807
 554  1       35.885929  11.799160  45.628807
 555  1       35.885929  11.799160  57.628807
 556  1       35.885929  23.799160   9.628807
 557  1       35.885929  23.799160  21.628807
 558  1       35.885929  23.799160  33.628807
 559  1       35.885929  23.799160  45.628807
 560  1       35.885929  23.799160  57.628807
 561  1       35.885929  35.799160   9.628807
 562  1       35.885929  35.799160  21.628807
 563  1       35.885929  35.799160  33.628807
 564  1       35.885929  35.799160  45.628807
 565  1       35.885929  35.799160  57.628807
 566  1       35.885929  47.799160   9.628807
 567  1       35.885929  47.799160  21.628807
 568  1       35.885929  47.799160  33.628807
 569  1       35.885929  47.799160  45.628807
 570  1       35.885929  47.799160  57.628807
 571  1       35.885929  59.799160   9.628807
 572  1       35.885929  59.799160  21.628807
 573  1       35.885929  59.799160  33.628807
 574  1       35.885929  59.799160  45.628807
 575  1       35.885929  59.799160  57.628807
 576  1       47.885929  11.799160   9.628807
 577  1       47.885929  11.799160  21.628807
 578  1       47.885929  11.799160  33.628807
 579  1       47.885929  11.799160  45.628807
 580  1       47.885929  11.799160  57.628807
 581  1       47.885929  23.799160   9.628807
 582  1       47.885929  23.799160  21.628807
 583  1       47.885929  23.799160  33.628807
 584  1       47.885929  23.799160  45.628807
 585  1       47.885929  23.799160  57.628807
 586  1       47.885929  35.799160   9.628807
 587  1       47.885929  35.799160  21.628807
 588  1       47.885929  35.799160  33.628807
 589  1       47.885929  35.799160  45.628807
 590  1       47.885929  35.799160  57.628807
 591  1       47.885929  47.799160   9.628807
 592  1       47.885929  47.799160  21.628807
 593  1       47.885929  47.799160  33.628807
 594  1       47.885929  47.799160  45.628807
 595  1       47.885929  47.799160  57.628807
 596  1       47.885929  59.799160   9.628807
 597  1       47.885929  59.799160  21.628807
 598  1       47.885929  59.799160  33.628807
 599  1       47.885929  59.799160  45.628807
 600  1       47.885929  59.799160  57.628807
 601  1       59.885929  11.799160   9.628807
 602  1       59.885929  11.799160  21.628807
 603  1       59.885929  11.799160  33.628807
 604  1       59.885929  11.799160  45.628807
 605  1       59.885929  11.799160  57.628807
 606  1       59.885929  23.799160   9.628807
 607  1       59.885929  23.799160  21.628807
 608  1       59.885929  23.799160  33.628807
 609  1       59.885929  23.799160  45.628807
 610  1       59.885929  23.799160  57.628807
 611  1       59.885929  35.799160   9.628807
 612  1       59.885929  35.799160  21.628807
 613  1       59.885929  35.799160  33.628807
 614  1       59.885929  35.799160  45.628807
 615  1       59.885929  35.799160  57.628807
 616  1       59.885929  47.799160   9.628807
 617  1       59.885929  47.799160  21.628807
 618  1       59.885929  47.799160  33.628807
 619  1       59.885929  47.799160  45.628807
 620  1       59.885929  47.799160  57.628807
 621  1       59.885929  59.799160   9.628807
 622  1       59.885929  59.799160  21.628807
 623  1       59.885929  59.799160  33.628807
 624  1       59.885929  59.799160  45.628807
 625  1       59.885929  59.799160  57.628807
 626  1       11.704094   2.441038   0.050917
 627  1       11.704094   2.441038  12.050917
 628  1       11.704094   2.441038  24.050917
 629  1       11.704094   2.441038  36.050917
 630  1       11.704094   2.441038  48.050917
 631  1       11.704094  14.441038   0.050917
 632  1       11.704094  14.441038  12.050917
 633  1       11.704094  14.441038  24.050917
 634  1       11.704094  14.441038  36.050917
 635  1       11.704094  14.441038  48.050917
 636  1       11.704094  26.441038   0.050917
 637  1       11.704094  26.441038  12.050917
 638  1       11.704094  26.441038  24.050917
 639  1       11.704094  26.441038  36.050917
 640  1       11.704094  26.441038  48.050917
 641  1       11.704094  38.441038   0.050917
 642  1       11.704094  38.441038  12.050917
 643  1       11.704094  38.441038  24.050917
 644  1       11.704094  38.441038  36.050917
 645  1       11.704094  38.441038  48.050917
 646  1       11.704094  50.441038   0.050917
 647  1       11.704094  50.441038  12.050917