LAMMPS data file via write_data, version 29 Aug 2024, timestep = 4000, units = metal

4394 atoms
2 atom types

0 31.38647384337063 xlo xhi
0 31.38647384337063 ylo yhi
0 31.38647384337063 zlo zhi
0 0 0 xy xz yz

Atoms # atomic

1 1 1.004711261498071 2.1400699001143386 28.783549697594744 0 0 -1
2 1 31.152927929657412 29.77889616869445 3.3811059437196227 -1 -1 0
3 1 2.2619895623387882 30.948635202746225 2.252178490607304 0 -1 0
4 1 2.4498194523486823 0.859859550045901 6.79860034302155 0 0 0
5 1 2.742662609959221 2.8240486029914322 9.552623649479125 0 0 0
6 1 30.62775209418782 30.062453088850067 11.891417656225247 -1 -1 0
7 1 2.532667377870209 0.22465148553809158 13.067729466459621 0 0 0
8 1 1.5895969313458371 0.151350691211216 15.326642019697797 0 0 0
9 1 27.922647747323424 29.51183216575615 19.399512103042873 -1 -1 0
10 1 2.12906367831878 30.242081514946147 21.912080539706455 0 -1 0
11 1 0.7522216460135598 30.066992067542387 26.552089686259986 0 -1 0
12 1 2.2181083322151043 31.007441778326108 25.981681235128445 0 -1 0
13 1 23.50664633418212 2.812145322189282 31.11592771537306 -1 0 0
14 1 1.055244456429623 7.234146673073496 4.022666215384874 0 0 0
15 1 1.7700804600048312 0.848386126686339 0.8291894522395765 0 0 0
16 1 31.268662091324373 0.46810515291391386 2.4003774377359295 -1 0 0
17 1 29.968255754741794 1.3715643883446573 9.667127916821961 -1 0 0
18 1 30.30816514568485 28.362592879963955 10.564742570606628 -1 -1 0
19 1 31.36517521995229 2.600793302460977 12.70180794614926 -1 0 0
20 1 30.689720184355473 4.143019630638064 11.549201778224223 -1 0 0
21 1 3.4784918307285366 3.522369016790552 20.655030972391195 0 0 0
22 1 30.589429695595765 3.995356319816123 20.944211406859573 -1 0 0
23 1 3.387678731882874 0.42590007186493795 23.67823963152917 0 0 0
24 1 2.1122774456204505 30.274790997314327 23.665040746082806 0 -1 0
25 1 30.481087361157893 3.8822441677671 30.82707471242008 -1 0 0
26 1 30.568661903917803 3.1399445325919833 28.92504109030135 -1 0 0
27 1 1.398741299262965 6.064712480828557 28.513934845722194 0 0 -1
28 1 3.080352310368164 0.9572610416685305 3.796548014857538 0 0 0
29 1 29.454032708133052 5.656169235232584 3.033775268743694 -1 0 0
30 1 30.17984771477183 4.101265916359472 8.243150384105222 -1 0 0
31 1 29.25166389032449 2.7523627399938824 12.061323511618811 -1 0 0
32 1 5.4771205913391 4.99050508923851 15.852865751503417 0 0 0
33 1 0.9921168326239667 6.85778057470885 13.047943590116132 0 0 0
34 1 1.8723313381151 5.591885556264324 16.058877549642098 0 0 0
35 1 0.1849842587410787 5.61253277265834 21.596511727839122 0 0 0
36 1 1.7117069768529263 3.8626287802466717 21.55055546913845 0 0 0
37 1 2.1797641658060853 5.934499412375861 26.57231334926733 0 0 0
38 1 0.12131878367587867 2.765616808397414 26.564757944654232 0 0 0
39 1 29.21199221559339 6.112016236630512 24.6264082652927 -1 0 0
40 1 0.3875751356326042 6.270573183123963 1.4153044939369968 0 0 0
41 1 0.4219626505942834 8.18705200370739 6.023144619795522 0 0 0
42 1 29.75375539601724 8.972636027535424 6.045198232280159 -1 0 0
43 1 0.3677817375186907 5.209079967272191 8.857649611167796 0 0 0
44 1 0.2854508032313531 3.1574949709796076 8.49376337857345 0 0 0
45 1 0.527804910292919 5.757821829315045 14.305963105709058 0 0 0
46 1 0.2658047811437408 8.246916912140028 14.996327803379074 0 0 0
47 1 30.668070267401557 5.383996197673604 19.87796893340858 -1 0 0
48 1 2.990290611535437 10.08648923236651 20.25874297037423 0 0 0
49 1 28.63795391617504 12.644375899086231 18.582966240655377 -1 0 0
50 1 0.047475480839480735 6.246946478975972 25.729025423523126 0 0 0
51 1 3.284486790273713 5.627843988119511 28.177692116455304 0 0 0
52 1 1.374567585564187 11.419165463854732 0.6108857428570179 0 0 1
53 1 3.537034807585892 10.60959917102557 31.18812709005022 0 0 -1
54 1 28.73709189549902 7.795762579795892 31.07901239461958 -1 0 -1
55 1 27.45538529561202 10.381405328754434 2.3333769082527867 -1 0 0
56 1 29.84507091616408 5.65967747683323 10.198199660941466 -1 0 0
57 1 28.62193067616612 11.902283003115508 9.018003185981376 -1 0 0
58 1 30.769576624038127 7.4441714572561954 13.520789590438056 -1 0 0
59 1 2.5929856194244114 7.248650724833661 14.937051908487025 0 0 0
60 1 28.92386568379681 9.116714463874425 17.761162513609484 -1 0 0
61 1 4.256162666659909 10.08959922607213 18.931715377243794 0 0 0
62 1 30.71183730948818 9.46777083760877 24.07596769499009 -1 0 0
63 1 1.3786364073426447 7.078688402420828 22.393478236681638 0 0 0
64 1 3.74933866062098 3.8615176246442604 23.225637174155544 0 0 0
65 1 4.75594877012487 3.84325313803726 25.450960212563857 0 0 0
66 1 31.060177858480657 9.476081614309777 29.94952021555491 -1 0 -1
67 1 29.21023311151515 8.964896585395135 1.9182006662399795 -1 0 0
68 1 0.005325384191732853 10.025984298854556 6.459122455436127 0 0 0
69 1 29.728093296764985 6.044081473603793 8.44400442745158 -1 0 0
70 1 30.11060088876563 10.690610053354613 7.976121352389701 -1 0 0
71 1 29.169307356251363 10.69567574674036 6.281683267688208 -1 0 0
72 1 30.272809113708274 9.936135510244574 16.432227376772012 -1 0 0
73 1 2.96654689447439 16.523080236556893 20.03858164587547 0 0 0
74 1 0.8869074652465317 8.346186925832571 18.7887053045364 0 0 0
75 1 1.4937941334815212 8.830114825173359 21.16357589737122 0 0 0
76 1 0.2755392901151836 12.934955001605678 23.36467562121146 0 0 0
77 1 2.5819044287868715 12.242514192472651 23.10933079975949 0 0 0
78 1 1.758703836649538 9.950905391271066 26.912104816734875 0 0 0
79 1 30.017328653288565 16.086044572032957 29.444180072198876 -1 0 -1
80 1 1.3191541082226617 14.909704938152647 5.0110337267428 0 0 0
81 1 30.291388598078846 12.666709244505496 0.451671554639945 -1 0 0
82 1 29.30997369633542 13.16756286127887 3.757891476988877 -1 0 0
83 1 30.18128944816841 17.08626994543654 8.638490015111577 -1 0 0
84 1 0.27488669513361796 10.607516319012879 13.232142777214547 0 0 0
85 1 2.1176109324681907 11.69801162016842 8.759274600763872 0 0 0
86 1 30.6724534429735 11.809142627537978 15.552531498010994 -1 0 0
87 1 1.6431555974727603 15.839444352800392 15.79714146049048 0 0 0
88 1 0.39391412856251906 12.53180321541857 26.744534528154755 0 0 0
89 1 1.5343317771575458 11.800763388955813 24.93003355700235 0 0 0
90 1 1.109986999726555 13.848750279978852 25.158951711105086 0 0 0
91 1 2.6779246815957425 13.998655072273126 0.26438354423424526 0 0 1
92 1 0.5311902520320118 19.222725932713946 28.913468147737664 0 0 -1
93 1 1.0873209211352568 16.377981122214734 3.8843129450740093 0 0 0
94 1 30.057928219545953 21.152935660250353 5.653995076987074 -1 0 0
95 1 0.359466087356435 13.625621532868681 6.338256283711538 0 0 0
96 1 30.304464643113928 13.016452268403466 10.293004464680724 -1 0 0
97 1 1.5833725971006116 16.08044308743558 11.63978238096693 0 0 0
98 1 29.820982880889044 14.758743448920649 10.191641362073998 -1 0 0
99 1 29.41042113544027 15.750806489691486 21.84759678276328 -1 0 0
100 1 0.2432277015230291 17.047096403519358 17.1302157526464 0 0 0
101 1 29.40814216377882 19.882947982858713 21.401083458709344 -1 0 0
102 1 3.5006025064575548 12.846870224156232 28.259689320586624 0 0 0
103 1 3.971897003246188 19.563303007591962 23.170944873812257 0 0 0
104 1 31.363912110794498 14.45596966462498 29.60461845685591 -1 0 0
105 1 31.203700405304588 21.051900120579685 0.18817199366651546 -1 0 0
106 1 2.9660163855999353 18.067937805315733 0.07815357894168638 0 0 0
107 1 30.65721891156672 21.303709564765118 2.8408285812501535 -1 0 0
108 1 0.37554634117998104 17.821106306481774 4.8775239674551845 0 0 0
109 1 2.839762512592818 20.656649880383814 7.05978393852441 0 0 0
110 1 2.540446310611421 16.849003792829382 9.887458864564833 0 0 0
111 1 0.5092826391733521 21.44056767043471 11.709057239109901 0 0 0
112 1 0.4389758384740769 16.933920760129205 10.378860247257355 0 0 0
113 1 29.130245579269168 19.108662060672952 18.782164598920406 -1 0 0
114 1 0.12796606905839475 19.103125362007717 20.846413752505413 0 0 0
115 1 0.3496438054981803 18.810198901480785 22.930145866720306 0 0 0
116 1 28.65831200083109 17.288252610168414 25.299747177593762 -1 0 0
117 1 30.046017071954488 19.221696510689576 28.208829955884568 -1 0 0
118 1 1.8069535756751773 19.48889633998028 30.500794556899947 0 0 -1
119 1 29.331258150625583 20.787270693086164 1.1916972072711558 -1 0 0
120 1 4.267277237304391 19.23807503433069 3.954172580914017 0 0 0
121 1 31.24099883330186 23.025277556397995 6.011216405232504 -1 0 0
122 1 1.2435019220463377 23.637267051330664 9.243749538867824 0 0 0
123 1 2.931405187576935 21.342219895675527 9.081014433491752 0 0 0
124 1 31.11496541687959 22.029279879684236 15.374757250328017 -1 0 0
125 1 0.033131505925798194 22.068342786416395 17.697232596379134 0 0 0
126 1 23.73590191555146 21.595750062881603 17.46492209183771 -1 0 0
127 1 30.183519351286012 21.09148720004571 16.577536776435778 -1 0 0
128 1 0.034603251971755 23.177276901190574 20.673987609925163 0 0 0
129 1 28.0967151185587 19.40162486272218 25.36953261010776 -1 0 0
130 1 28.059066255830892 22.164565403167718 0.6514653314928649 -1 0 1
131 1 2.0220213322780936 23.366113321848452 3.9755328701719375 0 0 0
132 1 31.356979165714975 26.00843166890832 5.788418275290986 -1 0 0
133 1 1.793299600625221 21.151804666855824 31.068568524718604 0 0 -1
134 1 30.37398799424335 25.27431085883813 7.547769915086152 -1 0 0
135 1 25.172305888924335 23.321764298631802 14.738628190095147 -1 0 0
136 1 28.463913721020553 24.477500456148572 14.797332200222884 -1 0 0
137 1 31.249129558637783 22.183510799626433 13.517038575446726 -1 0 0
138 1 26.35697729544482 21.49746810666886 14.389746708056265 -1 0 0
139 1 2.3781088198373714 26.900240172856694 19.249777505041745 0 0 0
140 1 0.9351505624726449 22.153645192799253 19.244850511565858 0 0 0
141 1 30.11194897380364 22.1634464894658 22.20180045853416 -1 0 0
142 1 0.8676130931682506 26.206241388312673 27.430285074783423 0 0 0
143 1 29.1619056887644 23.3897353555669 28.920188304906652 -1 0 0
144 1 28.538513317534825 24.282716815536077 1.0752265682914846 -1 0 0
145 1 30.421504929458305 22.935360216782847 0.8619850069342743 -1 0 0
146 1 30.839647342780086 28.162555801699327 4.212988989950307 -1 0 0
147 1 31.04587902072557 30.289892632375718 5.503173472806536 -1 0 0
148 1 27.650130136896493 0.8160165373383264 7.244170070139822 -1 1 0
149 1 28.62514899628279 26.357208896622943 15.285955360255448 -1 0 0
150 1 30.21077781303994 25.351500961308435 15.602604777899659 -1 0 0
151 1 0.554682920095814 25.440469642959016 16.75331703116494 0 0 0
152 1 0.7547661337230653 30.56563610351729 18.34365508491019 0 0 0
153 1 27.656515797944046 28.86307432617899 23.302072157479685 -1 0 0
154 1 31.12812034626043 22.212657057109755 24.336471414741855 -1 0 0
155 1 30.235509259657412 26.05585360271007 24.028078574581237 -1 0 0
156 1 30.474490184637784 24.20335270499645 30.460910454861338 -1 0 0
157 1 29.546981060533128 29.32310164249385 29.89443561780419 -1 0 -1
158 1 1.68814177342896 29.21394598153209 3.22999730606647 0 0 0
159 1 29.785306788801716 0.07907721869452376 4.134788945545643 -1 1 0
160 1 2.2154831286068393 27.252517696443885 8.712191426451643 0 0 0
161 1 30.351556602991515 30.573189908034454 9.95696910307705 -1 0 0
162 1 30.44714808593324 24.159724940961553 11.959584153482862 -1 0 0
163 1 2.354102752862457 23.731737011391015 14.151113949565428 0 0 0
164 1 29.258682063660977 27.939248104947204 18.981725943068124 -1 0 0
165 1 29.740172994205718 30.76604350603756 20.818852646280686 -1 0 0
166 1 2.433603007634288 28.467125841124112 24.66604773405509 0 0 0
167 1 30.888462374604853 29.652090429486606 24.595137279141007 -1 0 0
168 1 2.274708351865559 27.339647840571697 26.69891084652909 0 0 0
169 1 28.06906240198893 27.73293290459776 28.090585248260407 -1 0 0
170 1 4.865579138698008 29.440698995316378 30.832355975113213 0 -1 -1
171 1 3.77016861788908 0.5086785075284039 0.30741649677405647 0 0 0
172 1 2.5687230124130074 2.920310321104245 0.9079900666783834 0 0 0
173 1 29.500462917150685 0.47479421288011625 7.630477086803607 -1 0 0
174 1 2.741203508564825 31.006311476814354 9.773144540611598 0 -1 0
175 1 2.8976074287543696 1.1453326124049807 11.16337901860411 0 0 0
176 1 0.26722475000662327 3.640867812609084 14.52605385191651 0 0 0
177 1 3.3239497818407227 1.3050057605536294 20.27286881416379 0 0 0
178 1 30.944167134147655 1.8575253086096069 19.387125198260442 -1 0 0
179 1 3.1151667316322493 1.9305439980169634 15.678860430532984 0 0 0
180 1 4.269856009193365 1.3217403332770383 27.370960066985557 0 0 0
181 1 5.800167218325669 2.572028935047748 26.450071756713495 0 0 0
182 1 4.121130624815324 28.020227943979474 26.35466327138166 0 -1 0
183 1 3.1176088488004208 3.703959437006104 29.089515693509764 0 0 -1
184 1 0.8245211336395137 4.276891894844456 0.1393474168750497 0 0 0
185 1 4.306704240987965 1.8501133760620718 5.041538278667794 0 0 0
186 1 0.7234370795091529 0.249778476848065 6.246083653021001 0 0 0
187 1 5.172175216206062 28.714204466060686 12.091958408198828 0 -1 0
188 1 0.3119440502596014 1.9439982871585135 10.754097735849578 0 0 0
189 1 4.176917426166353 2.821840460987049 11.134054071915587 0 0 0
190 1 8.073295589093707 4.6068960354018476 14.542208492343141 0 0 0
191 1 0.4382408578096065 2.6360008709180174 20.888914795086723 0 0 0
192 1 2.4445902550062355 2.4071537445487086 22.04173697715911 0 0 0
193 1 1.2932879582162584 1.0262466478277597 21.470266191435392 0 0 0
194 1 5.5366297348339115 2.0749924809432585 31.270088655542235 0 0 0
195 1 5.263829146851825 1.6871156282453537 29.109553382893466 0 0 0
196 1 4.692335192457082 7.164214439164567 30.933124905042828 0 0 -1
197 1 1.050287964012967 3.629759009171967 4.488324451083334 0 0 0
198 1 2.5052323303959954 2.850752551563166 5.416587714463503 0 0 0
199 1 2.228625702826893 4.334699839541948 8.168019756598646 0 0 0
200 1 2.0393936436109845 2.657995203988489 11.731644668152871 0 0 0
201 1 6.0909510868758145 1.790428399272153 11.13042107276943 0 0 0
202 1 3.7612575891183937 5.3291146373852945 15.513879340226012 0 0 0
203 1 5.610066580302663 1.349709559562521 14.022364227894935 0 0 0
204 1 4.23331690566075 3.4712559758133246 14.585816344473214 0 0 0
205 1 3.6871759922852996 5.3294483220191164 21.491002962945085 0 0 0
206 1 2.8974615328435966 2.331445246440282 24.181895283941135 0 0 0
207 1 1.3060758706078077 2.0793389163535347 25.338109861180705 0 0 0
208 1 1.3042794865079361 31.323724614224215 28.226378796366117 0 -1 0
209 1 2.495840854537296 6.595846933862821 0.16936904351074858 0 0 0
210 1 4.052024731602078 5.4764821468488165 0.7796020189120421 0 0 0
211 1 2.6320952131770348 4.681781812367894 5.799442430710966 0 0 0
212 1 2.9589050622061217 4.804621466963401 10.305652866458397 0 0 0
213 1 1.7024116552491768 6.049110268598884 9.480571018107932 0 0 0
214 1 6.329689939224672 4.615492227656171 11.430410272178 0 0 0
215 1 30.685338154582226 9.582859739964196 18.75294781357304 -1 0 0
216 1 4.552234883772278 9.403420560761939 16.959050966234415 0 0 0
217 1 1.5020595093615112 4.533266325160951 18.067715280519156 0 0 0
218 1 2.935785557733952 7.356619332582136 21.49468749439262 0 0 0
219 1 3.0139692813540884 4.379677319921958 24.960109232624532 0 0 0
220 1 5.350434072989014 5.3296711744221605 22.826029243901722 0 0 0
221 1 0.921263144209837 5.739386201202368 30.412143918583542 0 0 0
222 1 6.062485329642863 13.007749861651067 30.091700014435812 0 0 -1
223 1 2.298204744783104 6.732899703431189 2.1927421728870167 0 0 0
224 1 1.8287396515657128 6.6274455596490585 5.744882049247077 0 0 0
225 1 0.5843661465953681 12.278186053293858 9.451486232642493 0 0 0
226 1 0.1309483437487037 7.338669329207932 9.264455447494576 0 0 0
227 1 2.891482392415529 8.022498570638458 13.050149261704467 0 0 0
228 1 4.688776752903871 4.934799397297904 11.128210721700297 0 0 0
229 1 5.473311042861737 12.404513994756456 15.078195825895197 0 0 0
230 1 1.3364958313786297 7.229113485823084 16.781842194907657 0 0 0
231 1 2.0040959991610747 12.145135996189104 20.340364318861486 0 0 0
232 1 5.0178469141894215 10.408843538968364 20.902740176475515 0 0 0
233 1 1.61945865823416 11.047802612177458 21.815348329231153 0 0 0
234 1 1.1246441503895588 8.923521302929094 28.627717254826827 0 0 0
235 1 30.8441063897735 11.95940813847032 3.004934366246475 -1 0 0
236 1 0.7173588534811486 9.595254920782134 0.5117500563321887 0 0 0
237 1 30.68614460507841 11.724565351161699 5.5297428388048955 -1 0 0
238 1 3.234112837550032 13.566477533406228 4.808732660601797 0 0 0
239 1 1.878131801991538 5.350788421414106 3.8915415138339373 0 0 0
240 1 4.325245706736406 7.03894343429225 10.504280831317637 0 0 0
241 1 0.9435707778629402 12.354362793519844 13.984135597393005 0 0 0
242 1 0.5175647494238 12.79710243041728 16.41914753188092 0 0 0
243 1 2.0714516774799514 11.96701097790672 17.569682316485192 0 0 0
244 1 1.107254200725126 14.872593879010799 23.321034442987568 0 0 0
245 1 1.3654388758905034 9.870390962295032 24.769370984889548 0 0 0
246 1 3.577685314434036 8.673170356727027 27.156778189659345 0 0 0
247 1 4.894825740660095 10.406986317537264 28.107873229399257 0 0 0
248 1 2.4424769488419793 15.417458762729119 1.9922048466022932 0 0 0
249 1 30.42413481641405 15.138006973046386 3.580679279699958 -1 0 0
250 1 1.9453457128593512 8.938119642679728 4.608625513525358 0 0 0
251 1 0.9742141910571899 10.65112641377328 4.498994841747898 0 0 0
252 1 0.33485952219732684 12.149688480758629 7.572780478208941 0 0 0
253 1 3.780234482800289 18.07672302655749 10.23155649354566 0 0 0
254 1 1.8421575776641028 14.001428366399981 14.645170683499765 0 0 0
255 1 29.19939786039639 15.69418259721703 15.257731255387545 -1 0 0
256 1 3.4101695497668922 11.87886891306433 19.409829289161635 0 0 0
257 1 30.635586560285066 13.209948504632044 19.645746759222916 -1 0 0
258 1 0.07900594257390135 15.732710403699981 22.104997133188032 0 0 0
259 1 3.9012939038624617 11.43665810926222 26.946584658136675 0 0 0
260 1 4.381558286367663 14.547020922926347 0.8928187896968396 0 0 1
261 1 2.6690366129010874 17.170549220562457 2.7861076986081525 0 0 0
262 1 5.050113872489339 14.018031570153955 3.7232826097296328 0 0 0
263 1 1.352427789062217 12.339200465311587 5.329289725632758 0 0 0
264 1 29.830057620367526 17.695883892046346 5.345060110978021 -1 0 0
265 1 2.234608217868705 19.11293228791769 9.090972396695026 0 0 0
266 1 0.8389911124333284 15.367408854556755 7.397751204495547 0 0 0
267 1 31.297831979443487 16.412594575197343 13.969730818833945 -1 0 0
268 1 29.10898860080634 16.369205304522453 12.6907637427887 -1 0 0
269 1 1.9228578668043743 15.421115317162796 18.66379526992796 0 0 0
270 1 4.391423325934535 16.452158569917458 24.405650617293723 0 0 0
271 1 1.7203650827744108 18.177506402387806 20.782452762054714 0 0 0
272 1 2.6468584871126484 19.706855110048007 24.764763577593364 0 0 0
273 1 1.036596332122129 15.822468970115217 28.940556081542287 0 0 0
274 1 0.9569088516148703 22.509987792698713 0.5740968280906854 0 0 0
275 1 2.6417439961329223 19.096697571676312 3.091795913078205 0 0 0
276 1 2.0942764623384917 17.729614478276616 4.6905661805808565 0 0 0
277 1 3.50449134026756 22.487622547677667 6.576800188423337 0 0 0
278 1 4.189902889744961 19.174572169992636 8.54255097416043 0 0 0
279 1 30.693527942711302 20.844099932537482 8.473594076394592 -1 0 0
280 1 3.0702846983034684 23.709599055024746 12.266315555221363 0 0 0
281 1 2.9335537595016006 17.70996857783056 14.26497335242608 0 0 0
282 1 2.726454973837309 19.166186001972715 19.070812868733512 0 0 0
283 1 1.7522749009955978 20.463762545311187 21.57381412769138 0 0 0
284 1 3.2856776641959455 21.535427383474406 25.218581957705165 0 0 0
285 1 0.8181818247893764 18.387137107898937 26.702981182581528 0 0 0
286 1 2.4303849524876515 15.649541817307902 27.604306892307193 0 0 0
287 1 31.377065045677064 23.05064630090623 28.516398400123855 -1 0 -1
288 1 3.0549800143637262 22.227725283825905 2.298838120319439 0 0 0
289 1 4.5731633801308185 23.076398896240757 8.126401395523695 0 0 0
290 1 5.196391090290031 24.46260820220655 9.14651660975808 0 0 0
291 1 3.5469959794875168 25.22326995447866 10.999030679906465 0 0 0
292 1 3.8765652398918733 24.781100322641517 14.386346717281354 0 0 0
293 1 1.037147290714468 20.586514640004648 13.734129933111966 0 0 0
294 1 1.118063111991977 23.257061716989835 16.792957261135022 0 0 0
295 1 31.301696776918867 18.730253247243816 13.818853889972143 -1 0 0
296 1 31.050505898277624 25.519098607467942 21.82503441191534 -1 0 0
297 1 31.228204615962607 20.88205254158177 21.549552391808202 -1 0 0
298 1 1.9610100904316983 22.836307748842632 26.238813108126216 0 0 0
299 1 0.8302880904487356 17.6499439038472 29.835549267316065 0 0 0
300 1 0.6129221335081404 23.403700204637477 30.032325397035333 0 0 -1
301 1 0.5996834477604364 26.445090006461754 1.3309053179148869 0 0 0
302 1 3.551454755119944 26.330241684013686 3.372603516983149 0 0 0
303 1 29.50181982525854 22.588286122926956 7.063818311719114 -1 0 0
304 1 30.846197103582607 24.68257660413157 9.923881921474676 -1 0 0
305 1 2.433384697260043 27.344262031855784 13.68529664834823 0 0 0
306 1 5.653682364779418 23.604246418608785 14.584693739588493 0 0 0
307 1 2.82809389164445 20.623431979325925 15.811704696808293 0 0 0
308 1 5.707300013989665 19.982178459731518 15.125538076970232 0 0 0
309 1 30.286767040615167 29.630734806344954 19.227874978033263 -1 0 0
310 1 0.11927172967408618 21.86261079098147 26.359927715560932 0 0 0
311 1 1.0698415383953574 22.087234327020845 22.22902193829609 0 0 0
312 1 0.7178824656049261 25.517995474413063 23.46262550951203 0 0 0
313 1 3.8590859138930567 25.579666049783654 29.40826470761363 0 0 -1
314 1 2.4434501284450705 25.35733588165724 0.5324612768675935 0 0 0
315 1 1.5571238149307467 25.37751708597005 2.6221867358416553 0 0 0
316 1 5.161819281670627 26.14629018163665 5.655834532875779 0 0 0
317 1 0.9462827635938348 27.314603759852258 5.072913780280947 0 0 0
318 1 3.578394339054779 27.52150042096382 9.817591863483857 0 0 0
319 1 0.3063156447970202 24.020660261535422 15.169313279401848 0 0 0
320 1 1.5338266247867423 25.659111529618926 14.695748877750082 0 0 0
321 1 0.6820651092518497 26.92672961409277 20.771229383906398 0 0 0
322 1 5.663328504403666 26.87906138948015 20.483821719229823 0 0 0
323 1 5.460402147805228 24.96021407602914 21.198683346086348 0 0 0
324 1 2.2146425743069034 23.858472611890715 28.376246846851735 0 0 0
325 1 0.43602160685410585 29.0355223953035 29.67809245010585 0 0 0
326 1 2.083455817783693 28.53651150226863 1.0439567320265892 0 0 0
327 1 3.5095313078527397 29.879260084460807 1.261058272844965 0 0 0
328 1 3.7614794435337475 30.153079415215892 4.030057834992678 0 0 0
329 1 0.8553883030229213 29.002654937588478 8.873922927302191 0 0 0
330 1 0.8024456667230976 27.333050436831897 10.237459484569301 0 0 0
331 1 0.7277030116904594 31.261479007271515 10.311505467370008 0 0 0
332 1 3.016989428063601 29.668178726053963 13.710403247236815 0 0 0
333 1 30.977727657937766 30.611449890338275 15.321840910552767 -1 0 0
334 1 3.226600500147053 29.637106283358513 20.4468508652334 0 0 0
335 1 2.110985561545788 28.190774311288482 21.306325940464223 0 0 0
336 1 2.794923668233367 29.23720034144216 27.155615342867105 0 0 0
337 1 6.555899025384544 30.500654649584025 27.249114525569674 0 0 0
338 1 2.4003632486962085 27.704732479829744 28.941970460947985 0 0 0
339 1 5.1143951405993935 3.3679154467122423 29.951865134891854 0 0 -1
340 1 5.204252688229962 27.028112825370425 2.4070327489074637 0 -1 0
341 1 5.110481616912451 29.35763598488652 2.4258565569857087 0 -1 0
342 1 5.34297140031109 2.5867166974423146 9.579765343407427 0 0 0
343 1 3.776830285628543 30.487363876891404 11.900591992861678 0 -1 0
344 1 6.854083070798891 31.275780170713624 14.095066106625973 0 -1 0
345 1 8.129476840541724 28.320756819207716 17.220013877721104 0 -1 0
346 1 1.2574202704729458 2.269472665122757 15.904531948349183 0 0 0
347 1 4.991423501504036 29.972471371767433 14.049965965658608 0 -1 0
348 1 5.308137448139664 0.24433083763726346 21.791637252807153 0 0 0
349 1 3.4620729512614736 0.13399526387508243 21.82641332437395 0 0 0
350 1 6.206135929584284 30.089962747153436 20.426806668109887 0 -1 0
351 1 7.614094494346011 28.804642451139657 26.159277478830735 0 -1 0
352 1 4.9298954687223 5.207312844392787 30.367846111489197 0 0 -1
353 1 5.279985577128394 31.1537991716757 4.484596161747054 0 -1 0
354 1 5.973020331232506 0.8581885853068426 8.154562855090232 0 0 0
355 1 3.5209755679525028 31.35859302457813 7.830534895270648 0 -1 0
356 1 7.395205264946348 29.664524987915286 12.302153262910076 0 -1 0
357 1 3.3777768493536615 28.237452758848054 12.05886398334229 0 -1 0
358 1 4.527266256260643 4.889346371995999 13.322353715115453 0 0 0
359 1 4.758499850160336 0.8276674049388614 12.147211041204857 0 0 0
360 1 6.482852378781223 3.447442075802698 14.689165071061256 0 0 0
361 1 4.644702542586265 3.598324350120693 18.890851416011795 0 0 0
362 1 7.756463395416225 3.8832176755635786 23.094470556420916 0 0 0
363 1 8.758849884005267 2.150437574612293 24.21347948530004 0 0 0
364 1 7.600825299620544 1.2302872199881385 26.001963738402708 0 0 0
365 1 6.722514676976116 4.380033580341265 2.6444261693970286 0 0 0
366 1 9.961336446024202 8.071133730254868 3.3945960607087806 0 0 0
367 1 5.476319469968964 4.097304494345682 6.034881959134378 0 0 0
368 1 5.431012653820039 3.214761205148929 7.787247133743067 0 0 0
369 1 7.368237405547509 6.071870853131064 8.868620500109717 0 0 0
370 1 6.0383101240477615 4.268081508740361 9.488263896150078 0 0 0
371 1 5.827711378330594 10.18976751621133 12.002189584474209 0 0 0
372 1 8.992639843184511 6.69130723579988 17.028920744327525 0 0 0
373 1 9.77467185221016 5.251574842298038 20.191625798775068 0 0 0
374 1 8.097471980068551 3.989830513974379 20.648808469732646 0 0 0
375 1 6.98803570930562 2.5458066412471285 21.843496303081395 0 0 0
376 1 4.5246117252365 1.722552395714808 24.398101716210675 0 0 0
377 1 3.0187069013540317 4.228575576386627 30.791124672778466 0 0 0
378 1 7.993999034932966 5.514681659213042 0.8533957032107704 0 0 0
379 1 30.592284520389114 4.643881853515712 1.3192916351878061 -1 0 0
380 1 6.507050806985608 9.387011810907454 1.3124097018632046 0 0 0
381 1 0.22981225277553488 6.798303139961374 7.058567310424147 0 0 0
382 1 3.870597519184072 9.388549915004731 7.971281182671656 0 0 0
383 1 7.457996660209051 4.090237186364002 8.415521466157257 0 0 0
384 1 7.598248274715349 6.853033597108532 12.986260033607834 0 0 0
385 1 9.430012742538658 8.738179848766377 15.629272380323286 0 0 0
386 1 6.598796316805448 9.386051399205428 15.939634577062199 0 0 0
387 1 7.668663790731604 11.297972601235388 20.261115735982713 0 0 0
388 1 8.689349314541591 9.404038734296645 20.717289250992458 0 0 0
389 1 7.484051868248801 3.1781501786160273 25.52627489193161 0 0 0
390 1 6.587513326069202 4.765207189166411 24.67941668419321 0 0 0
391 1 1.1800626184175098 10.593692397304267 2.414909951838063 0 0 0
392 1 2.859459911282342 9.580634771101845 1.403234176315844 0 0 0
393 1 5.73779229754955 7.583929934526966 2.146068700826312 0 0 0
394 1 1.8528758870371846 7.351023676975376 10.755384567617046 0 0 0
395 1 5.667121935712642 9.358450783017915 7.821140176302838 0 0 0
396 1 4.655842289129824 8.974501042670216 10.128113711981271 0 0 0
397 1 3.531957343270197 6.294413100444148 12.309848503187233 0 0 0
398 1 5.540251976697336 8.232216142573632 14.687307879645353 0 0 0
399 1 9.532461103603765 10.897656560073775 19.311512744692312 0 0 0
400 1 2.819062671140043 8.455816415232793 17.58191758722529 0 0 0
401 1 1.8106172301971704 6.724136511928001 18.507578689368135 0 0 0
402 1 6.79879172979991 7.649698931960633 23.969800063212805 0 0 0
403 1 7.680505512230668 7.283500652867417 29.88996636481831 0 0 0
404 1 4.255113107972051 13.736548163255703 30.146373619991476 0 0 -1
405 1 6.3460212626274135 9.209649303570274 3.259025541299449 0 0 0
406 1 5.858109762668619 12.791644341170127 4.944915672103452 0 0 0
407 1 2.3347996648224996 11.243137006499746 6.7077824860349216 0 0 0
408 1 2.3164925901786813 13.219176253583464 6.842366237039906 0 0 0
409 1 4.105337385403219 12.329982956870216 10.115256720681403 0 0 0
410 1 2.1977719438816625 10.91735601087091 10.858427143212825 0 0 0
411 1 5.6693357060702745 11.513935737351533 19.2642564479086 0 0 0
412 1 0.637916016730608 11.809681775852399 19.156619340101173 0 0 0
413 1 30.572469471824416 13.829054678932888 21.602819309934812 -1 0 0
414 1 3.2029321058439795 12.875045888151789 25.232903087154344 0 0 0
415 1 5.728666836431623 12.043886969931572 26.696336469097467 0 0 0
416 1 5.6337156567288345 6.771062905239572 29.000442938629636 0 0 0
417 1 0.34146148777353275 11.42226065974433 30.377135477261383 0 0 -1
418 1 7.79054973349798 13.536643105488768 1.261287753729089 0 0 0
419 1 6.941741940482636 14.776135479030824 4.152535394018967 0 0 0
420 1 7.240502754518368 11.242514237829312 5.890687613564632 0 0 0
421 1 2.9103790851520106 10.785413131620276 4.4258562233757175 0 0 0
422 1 5.263035059551313 14.57254504860941 9.512394616316392 0 0 0
423 1 3.6901648836091474 13.070768258215764 14.477214389946834 0 0 0
424 1 8.052154552785469 13.583809187485302 14.199012213638747 0 0 0
425 1 4.134269327911047 11.54845271180121 17.36574460440632 0 0 0
426 1 2.1178328226655556 15.37150682627585 21.37024126690821 0 0 0
427 1 4.300092767825922 17.31847206582981 27.668786759589928 0 0 0
428 1 4.873016268522604 8.203402124394284 25.619297831921827 0 0 0
429 1 5.396177564721216 13.665824542122444 28.241913578033785 0 0 0
430 1 3.783565441508455 16.361081451138443 1.027849720640982 0 0 0
431 1 6.360123370065287 15.060783928247565 2.0529033202974425 0 0 0
432 1 7.292790077100999 17.45700972483596 5.558624796569053 0 0 0
433 1 1.891971453352527 16.480004950466817 6.181714475128328 0 0 0
434 1 2.3691368424579125 14.31880276378969 12.477888430622926 0 0 0
435 1 6.434477874842528 16.59179124674527 10.197664224189 0 0 0
436 1 7.812902713035817 18.11842536555376 9.673896907780415 0 0 0
437 1 5.4165035366095085 14.521824977352855 14.93876912130003 0 0 0
438 1 1.6127568932094898 19.098377798988952 14.928439456762165 0 0 0
439 1 6.585367227713511 15.721183693784912 23.545140591329638 0 0 0